ITEM: TIMESTEP
19
ITEM: NUMBER OF ATOMS
4000
ITEM: BOX BOUNDS ss pp pp
-3.6150000000000002e-03 3.4346115000000005e+01
0.0000000000000000e+00 3.6149999999999999e+01
0.0000000000000000e+00 3.6149999999999999e+01
ITEM: ATOMS id type x y z fx fy fz 
1 1 0.0415427 -8.45528e-16 3.1268e-15 -2.61725e-05 1.26565e-14 1.17961e-16 
2 1 1.8187 1.8075 2.4834e-15 8.90886e-06 -1.14631e-14 9.75955e-15 
3 1 1.8187 1.29003e-15 1.8075 8.90886e-06 1.97065e-15 4.14946e-15 
4 1 0.0415427 1.8075 1.8075 -2.61725e-05 2.77556e-16 -4.38018e-15 
5 1 3.61563 -5.07873e-16 5.6378e-16 -1.65445e-05 1.29896e-14 7.08461e-15 
6 1 5.42299 1.8075 -1.98056e-16 -4.28237e-06 -1.08247e-15 1.43011e-14 
7 1 5.42299 1.18571e-15 1.8075 -4.28237e-06 1.14075e-14 8.49321e-15 
8 1 3.61563 1.8075 1.8075 -1.65445e-05 -2.47025e-15 -9.18016e-15 
9 1 7.23052 1.79396e-15 2.05398e-15 3.93809e-06 3.9968e-15 6.16174e-15 
10 1 9.03793 1.8075 1.34132e-15 1.34399e-05 -2.19269e-15 1.02661e-14 
11 1 9.03793 3.55568e-15 1.8075 1.34399e-05 -1.15741e-14 -4.85029e-15 
12 1 7.23052 1.8075 1.8075 3.93809e-06 -7.77156e-15 -4.75314e-16 
13 1 10.8453 1.78437e-15 2.41301e-15 1.40642e-05 1.17129e-14 7.31359e-15 
14 1 12.6527 1.8075 -1.16493e-15 -1.48432e-06 -5.44009e-15 2.13059e-14 
15 1 12.6527 2.95634e-15 1.8075 -1.48432e-06 5.66214e-15 7.14706e-16 
16 1 10.8453 1.8075 1.8075 1.40642e-05 1.4988e-15 -2.87617e-15 
17 1 14.4601 9.64722e-16 7.3951e-16 -4.59553e-06 1.34701e-14 5.83041e-15 
18 1 16.2675 1.8075 -3.17208e-16 1.19712e-05 -6.10623e-16 3.70537e-15 
19 1 16.2675 1.14572e-15 1.8075 1.19712e-05 6.91114e-15 -9.11771e-15 
20 1 14.4601 1.8075 1.8075 -4.59553e-06 -6.31873e-16 -6.33001e-15 
41 1 0.0415427 3.615 9.89335e-16 -2.61725e-05 -2.43121e-15 1.08247e-14 
43 1 1.8187 3.615 1.8075 8.90886e-06 9.15283e-15 -1.08524e-14 
42 1 1.8187 5.4225 9.58262e-16 8.90886e-06 -7.40727e-16 1.67366e-14 
44 1 0.0415427 5.4225 1.8075 -2.61725e-05 -1.01221e-15 -5.52336e-15 
45 1 3.61563 3.615 -2.51609e-16 -1.65445e-05 1.03385e-14 2.1233e-14 
47 1 5.42299 3.615 1.8075 -4.28237e-06 -3.98596e-15 -1.63758e-15 
46 1 5.42299 5.4225 1.95106e-15 -4.28237e-06 4.01415e-15 4.4964e-15 
48 1 3.61563 5.4225 1.8075 -1.65445e-05 -1.2954e-15 -9.6867e-15 
49 1 7.23052 3.615 5.88168e-16 3.93809e-06 -3.1212e-15 5.02376e-15 
51 1 9.03793 3.615 1.8075 1.34399e-05 2.86793e-15 -6.02296e-15 
50 1 9.03793 5.4225 -3.59759e-15 1.34399e-05 4.05578e-15 4.55469e-14 
52 1 7.23052 5.4225 1.8075 3.93809e-06 4.01285e-15 -5.88418e-15 
53 1 10.8453 3.615 -3.3804e-16 1.40642e-05 -2.38915e-15 1.89015e-14 
55 1 12.6527 3.615 1.8075 -1.48432e-06 -1.02088e-15 -1.09079e-14 
54 1 12.6527 5.4225 2.51195e-15 -1.48432e-06 1.04552e-14 1.1019e-14 
56 1 10.8453 5.4225 1.8075 1.40642e-05 -4.72278e-16 -8.13238e-15 
57 1 14.4601 3.615 8.81537e-16 -4.59553e-06 3.88231e-15 8.29371e-15 
59 1 16.2675 3.615 1.8075 1.19712e-05 -6.32827e-15 -6.13398e-15 
58 1 16.2675 5.4225 -1.26118e-16 1.19712e-05 -1.48145e-15 1.17961e-15 
60 1 14.4601 5.4225 1.8075 -4.59553e-06 -7.6588e-16 -4.22579e-15 
81 1 0.0415427 7.23 3.41628e-15 -2.61725e-05 3.8628e-15 6.91114e-15 
83 1 1.8187 7.23 1.8075 8.90886e-06 -3.33804e-15 -3.60822e-16 
82 1 1.8187 9.0375 8.93028e-16 8.90886e-06 -6.57287e-15 9.52016e-15 
84 1 0.0415427 9.0375 1.8075 -2.61725e-05 -4.09004e-15 -2.69229e-15 
85 1 3.61563 7.23 9.63879e-16 -1.65445e-05 -6.44016e-15 6.41154e-15 
87 1 5.42299 7.23 1.8075 -4.28237e-06 -1.5864e-15 -5.85643e-15 
86 1 5.42299 9.0375 1.87714e-15 -4.28237e-06 6.59021e-15 -5.32907e-15 
88 1 3.61563 9.0375 1.8075 -1.65445e-05 6.11794e-15 -1.1352e-14 
89 1 7.23052 7.23 -1.20651e-15 3.93809e-06 2.61943e-15 1.09912e-14 
91 1 9.03793 7.23 1.8075 1.34399e-05 -9.7717e-15 -9.90874e-15 
90 1 9.03793 9.0375 7.41297e-16 1.34399e-05 -4.97519e-15 2.35922e-15 
92 1 7.23052 9.0375 1.8075 3.93809e-06 6.21204e-15 1.02696e-15 
93 1 10.8453 7.23 -4.12353e-16 1.40642e-05 4.92401e-15 8.54872e-15 
95 1 12.6527 7.23 1.8075 -1.48432e-06 1.97065e-15 -4.57967e-15 
94 1 12.6527 9.0375 1.19218e-15 -1.48432e-06 -9.4369e-16 4.77396e-15 
96 1 10.8453 9.0375 1.8075 1.40642e-05 5.44096e-15 -7.77156e-16 
97 1 14.4601 7.23 1.60444e-15 -4.59553e-06 2.42861e-15 1.37217e-14 
99 1 16.2675 7.23 1.8075 1.19712e-05 7.91034e-16 -4.4964e-15 
98 1 16.2675 9.0375 1.7365e-15 1.19712e-05 1.14839e-15 1.33088e-14 
100 1 14.4601 9.0375 1.8075 -4.59553e-06 -4.64689e-15 -3.21488e-15 
121 1 0.0415427 10.845 1.16021e-16 -2.61725e-05 5.52249e-15 4.13558e-15 
123 1 1.8187 10.845 1.8075 8.90886e-06 -6.76672e-15 -4.13558e-15 
122 1 1.8187 12.6525 -5.39319e-17 8.90886e-06 4.14599e-16 6.38378e-15 
124 1 0.0415427 12.6525 1.8075 -2.61725e-05 -2.04958e-15 -2.80331e-15 
125 1 3.61563 10.845 -7.44605e-16 -1.65445e-05 -4.19456e-15 5.93969e-15 
127 1 5.42299 10.845 1.8075 -4.28237e-06 5.12914e-15 -1.85962e-15 
126 1 5.42299 12.6525 1.46457e-15 -4.28237e-06 -1.11421e-14 4.27436e-15 
128 1 3.61563 12.6525 1.8075 -1.65445e-05 -1.65098e-14 6.07847e-15 
129 1 7.23052 10.845 3.25464e-15 3.93809e-06 5.63265e-15 -1.13798e-15 
131 1 9.03793 10.845 1.8075 1.34399e-05 5.7827e-15 3.83027e-15 
130 1 9.03793 12.6525 5.21502e-16 1.34399e-05 -2.29677e-15 1.70974e-14 
132 1 7.23052 12.6525 1.8075 3.93809e-06 -1.74947e-15 -4.94049e-15 
133 1 10.8453 10.845 1.43158e-15 1.40642e-05 -2.10379e-15 3.10862e-15 
135 1 12.6527 10.845 1.8075 -1.48432e-06 2.34795e-15 -6.05072e-15 
134 1 12.6527 12.6525 -2.51646e-15 -1.48432e-06 -1.3458e-14 -2.85882e-15 
136 1 10.8453 12.6525 1.8075 1.40642e-05 -4.705e-15 -1.97065e-15 
137 1 14.4601 10.845 2.22195e-15 -4.59553e-06 4.31946e-16 -4.31773e-15 
139 1 16.2675 10.845 1.8075 1.19712e-05 0 2.23432e-15 
138 1 16.2675 12.6525 1.45652e-15 1.19712e-05 -6.2797e-15 9.36751e-16 
140 1 14.4601 12.6525 1.8075 -4.59553e-06 -2.18749e-15 -1.32663e-15 
161 1 0.0415427 14.46 1.3648e-15 -2.61725e-05 -2.30285e-16 -9.15934e-16 
163 1 1.8187 14.46 1.8075 8.90886e-06 1.51051e-15 -7.79932e-15 
162 1 1.8187 16.2675 1.57466e-15 8.90886e-06 4.42788e-16 2.38698e-15 
164 1 0.0415427 16.2675 1.8075 -2.61725e-05 -5.24754e-17 1.16573e-15 
165 1 3.61563 14.46 1.24645e-15 -1.65445e-05 2.16164e-14 -5.96745e-15 
167 1 5.42299 14.46 1.8075 -4.28237e-06 -1.50314e-15 3.02536e-15 
166 1 5.42299 16.2675 8.55145e-16 -4.28237e-06 -1.50448e-14 1.69309e-15 
168 1 3.61563 16.2675 1.8075 -1.65445e-05 8.14192e-15 -4.19109e-15 
169 1 7.23052 14.46 2.08104e-15 3.93809e-06 1.96804e-15 6.60583e-15 
171 1 9.03793 14.46 1.8075 1.34399e-05 4.2054e-15 -2.7478e-15 
170 1 9.03793 16.2675 2.12975e-15 1.34399e-05 2.35055e-16 1.6237e-14 
172 1 7.23052 16.2675 1.8075 3.93809e-06 1.35525e-15 -1.36002e-15 
173 1 10.8453 14.46 1.8974e-15 1.40642e-05 8.59772e-15 2.63678e-15 
175 1 12.6527 14.46 1.8075 -1.48432e-06 1.19752e-14 -4.2466e-15 
174 1 12.6527 16.2675 -1.23177e-15 -1.48432e-06 -1.96375e-14 4.66294e-15 
176 1 10.8453 16.2675 1.8075 1.40642e-05 -1.63875e-14 -1.23512e-14 
177 1 14.4601 14.46 -7.24986e-16 -4.59553e-06 1.03789e-14 8.99801e-15 
179 1 16.2675 14.46 1.8075 1.19712e-05 1.00059e-14 -7.10543e-15 
178 1 16.2675 16.2675 1.93522e-15 1.19712e-05 -1.61433e-14 1.25594e-14 
180 1 14.4601 16.2675 1.8075 -4.59553e-06 -2.11762e-14 -6.57851e-15 
2001 1 0.0415427 18.075 2.7702e-15 -2.61725e-05 2.72482e-15 3.16414e-15 
2003 1 1.8187 18.075 1.8075 8.90886e-06 -3.75915e-15 -2.9976e-15 
2005 1 3.61563 18.075 1.08893e-15 -1.65445e-05 4.96261e-15 3.88578e-16 
2007 1 5.42299 18.075 1.8075 -4.28237e-06 6.53297e-15 -4.02456e-15 
2009 1 7.23052 18.075 3.8143e-15 3.93809e-06 1.57994e-14 -2.69784e-14 
2011 1 9.03793 18.075 1.8075 1.34399e-05 4.79825e-15 -8.90954e-15 
2013 1 10.8453 18.075 6.74915e-16 1.40642e-05 5.1569e-15 7.46625e-15 
2015 1 12.6527 18.075 1.8075 -1.48432e-06 1.88356e-14 9.79772e-15 
2017 1 14.4601 18.075 2.33429e-15 -4.59553e-06 -4.89019e-15 -7.17829e-15 
2019 1 16.2675 18.075 1.8075 1.19712e-05 7.20257e-15 -3.33067e-16 
2002 1 1.8187 19.8825 1.21218e-15 8.90886e-06 3.20143e-15 2.52576e-15 
2004 1 0.0415427 19.8825 1.8075 -2.61725e-05 1.65319e-15 2.83107e-15 
2041 1 0.0415427 21.69 3.66498e-15 -2.61725e-05 -2.76949e-15 -1.70419e-14 
2043 1 1.8187 21.69 1.8075 8.90886e-06 -1.2176e-14 2.55351e-15 
2006 1 5.42299 19.8825 -8.17083e-16 -4.28237e-06 -4.43742e-15 -1.38778e-15 
2008 1 3.61563 19.8825 1.8075 -1.65445e-05 -4.14078e-15 2.19269e-15 
2045 1 3.61563 21.69 1.2726e-15 -1.65445e-05 -1.2634e-14 -1.14908e-14 
2047 1 5.42299 21.69 1.8075 -4.28237e-06 7.68482e-16 -1.13798e-15 
2010 1 9.03793 19.8825 9.51127e-16 1.34399e-05 -9.53057e-15 -1.94289e-16 
2012 1 7.23052 19.8825 1.8075 3.93809e-06 2.7053e-15 7.21645e-16 
2049 1 7.23052 21.69 -7.85978e-16 3.93809e-06 -3.43909e-16 -1.69309e-15 
2051 1 9.03793 21.69 1.8075 1.34399e-05 -1.29549e-14 1.7486e-15 
2014 1 12.6527 19.8825 8.51037e-16 -1.48432e-06 4.03367e-15 -7.41074e-15 
2016 1 10.8453 19.8825 1.8075 1.40642e-05 -5.4878e-15 -4.60743e-15 
2053 1 10.8453 21.69 -1.72756e-16 1.40642e-05 -9.99504e-15 5.32907e-15 
2055 1 12.6527 21.69 1.8075 -1.48432e-06 1.05211e-14 3.52496e-15 
2018 1 16.2675 19.8825 2.29441e-15 1.19712e-05 5.32907e-15 2.2482e-15 
2020 1 14.4601 19.8825 1.8075 -4.59553e-06 -1.54911e-15 -4.18068e-16 
2057 1 14.4601 21.69 2.84091e-15 -4.59553e-06 -2.06649e-14 -9.37445e-15 
2059 1 16.2675 21.69 1.8075 1.19712e-05 -6.81399e-15 -4.76702e-15 
2042 1 1.8187 23.4975 1.4097e-15 8.90886e-06 -1.48137e-14 4.91274e-15 
2044 1 0.0415427 23.4975 1.8075 -2.61725e-05 7.56903e-15 -1.77636e-15 
2081 1 0.0415427 25.305 5.49608e-16 -2.61725e-05 3.03273e-15 1.27676e-15 
2083 1 1.8187 25.305 1.8075 8.90886e-06 -4.26569e-15 1.30451e-15 
2046 1 5.42299 23.4975 -1.69739e-15 -4.28237e-06 1.80004e-14 5.91194e-15 
2048 1 3.61563 23.4975 1.8075 -1.65445e-05 1.00883e-14 -3.80251e-15 
2085 1 3.61563 25.305 1.26898e-15 -1.65445e-05 -5.24494e-15 -1.9984e-15 
2087 1 5.42299 25.305 1.8075 -4.28237e-06 -1.11352e-14 8.88178e-16 
2050 1 9.03793 23.4975 -2.7462e-16 1.34399e-05 5.87551e-15 1.06026e-14 
2052 1 7.23052 23.4975 1.8075 3.93809e-06 2.28598e-14 -9.52016e-15 
2089 1 7.23052 25.305 1.91916e-15 3.93809e-06 1.02553e-14 1.26565e-14 
2091 1 9.03793 25.305 1.8075 1.34399e-05 -1.12913e-14 4.96825e-15 
2054 1 12.6527 23.4975 -2.38627e-16 -1.48432e-06 -8.95334e-15 -2.69229e-15 
2056 1 10.8453 23.4975 1.8075 1.40642e-05 5.6578e-15 2.498e-15 
2093 1 10.8453 25.305 1.32775e-15 1.40642e-05 -2.38416e-14 4.96825e-15 
2095 1 12.6527 25.305 1.8075 -1.48432e-06 7.18696e-15 -4.46865e-15 
2058 1 16.2675 23.4975 4.00827e-15 1.19712e-05 1.16018e-14 -3.25434e-14 
2060 1 14.4601 23.4975 1.8075 -4.59553e-06 8.49754e-15 9.85496e-15 
2097 1 14.4601 25.305 -1.09662e-15 -4.59553e-06 -1.37178e-14 -6.30052e-15 
2099 1 16.2675 25.305 1.8075 1.19712e-05 -1.73125e-15 4.44089e-15 
2082 1 1.8187 27.1125 -4.98273e-16 8.90886e-06 -4.38885e-15 7.27196e-15 
2084 1 0.0415427 27.1125 1.8075 -2.61725e-05 7.45454e-15 3.88578e-16 
2121 1 0.0415427 28.92 2.29743e-15 -2.61725e-05 2.78336e-15 5.32907e-15 
2123 1 1.8187 28.92 1.8075 8.90886e-06 4.01242e-15 -5.88418e-15 
2086 1 5.42299 27.1125 3.16287e-15 -4.28237e-06 -6.81486e-15 -4.71845e-16 
2088 1 3.61563 27.1125 1.8075 -1.65445e-05 -1.30564e-14 1.66533e-16 
2125 1 3.61563 28.92 1.99227e-15 -1.65445e-05 -3.9942e-15 -1.38778e-16 
2127 1 5.42299 28.92 1.8075 -4.28237e-06 7.41421e-15 5.68989e-15 
2090 1 9.03793 27.1125 3.4876e-15 1.34399e-05 -1.4975e-15 4.16334e-15 
2092 1 7.23052 27.1125 1.8075 3.93809e-06 -7.00048e-15 1.08247e-15 
2129 1 7.23052 28.92 6.93046e-16 3.93809e-06 -8.39172e-15 -6.71685e-15 
2131 1 9.03793 28.92 1.8075 1.34399e-05 -4.00374e-15 -1.11022e-16 
2094 1 12.6527 27.1125 -1.06564e-16 -1.48432e-06 -2.30588e-15 1.38778e-16 
2096 1 10.8453 27.1125 1.8075 1.40642e-05 5.80092e-15 -8.10463e-15 
2133 1 10.8453 28.92 7.45616e-16 1.40642e-05 -1.03585e-14 1.2379e-14 
2135 1 12.6527 28.92 1.8075 -1.48432e-06 -4.16507e-15 -8.16014e-15 
2098 1 16.2675 27.1125 -1.42047e-15 1.19712e-05 -6.10623e-16 6.67522e-15 
2100 1 14.4601 27.1125 1.8075 -4.59553e-06 -2.29157e-15 -5.2354e-15 
2137 1 14.4601 28.92 -1.38753e-15 -4.59553e-06 6.92762e-15 2.81372e-15 
2139 1 16.2675 28.92 1.8075 1.19712e-05 8.76729e-15 -6.6544e-15 
2122 1 1.8187 30.7275 1.77743e-15 8.90886e-06 1.72215e-15 2.02893e-14 
2124 1 0.0415427 30.7275 1.8075 -2.61725e-05 -2.35922e-15 -4.996e-15 
2161 1 0.0415427 32.535 2.13446e-15 -2.61725e-05 1.79162e-14 4.87631e-15 
2163 1 1.8187 32.535 1.8075 8.90886e-06 -1.76551e-14 -5.31996e-15 
2126 1 5.42299 30.7275 7.90101e-16 -4.28237e-06 6.96361e-15 -1.85962e-14 
2128 1 3.61563 30.7275 1.8075 -1.65445e-05 8.9464e-15 -2.69229e-15 
2165 1 3.61563 32.535 1.40417e-15 -1.65445e-05 7.61891e-15 -1.66533e-16 
2167 1 5.42299 32.535 1.8075 -4.28237e-06 9.87578e-15 1.47842e-15 
2130 1 9.03793 30.7275 -1.23163e-15 1.34399e-05 7.30752e-15 2.7478e-15 
2132 1 7.23052 30.7275 1.8075 3.93809e-06 1.31327e-14 3.16414e-15 
2169 1 7.23052 32.535 -1.46004e-15 3.93809e-06 1.24831e-14 8.51402e-15 
2171 1 9.03793 32.535 1.8075 1.34399e-05 1.77866e-14 3.11817e-16 
2134 1 12.6527 30.7275 2.85128e-16 -1.48432e-06 -5.9102e-15 4.71845e-16 
2136 1 10.8453 30.7275 1.8075 1.40642e-05 -1.0564e-14 6.91114e-15 
2173 1 10.8453 32.535 1.83918e-15 1.40642e-05 -1.87628e-14 4.78784e-15 
2175 1 12.6527 32.535 1.8075 -1.48432e-06 -1.15793e-14 2.94036e-16 
2138 1 16.2675 30.7275 -1.64044e-15 1.19712e-05 -3.02536e-15 6.89726e-15 
2140 1 14.4601 30.7275 1.8075 -4.59553e-06 4.49293e-16 -5.63265e-15 
2177 1 14.4601 32.535 5.36623e-16 -4.59553e-06 -2.1066e-14 5.9501e-15 
2179 1 16.2675 32.535 1.8075 1.19712e-05 1.03979e-14 -5.76622e-15 
2162 1 1.8187 34.3425 6.33074e-16 8.90886e-06 -2.18575e-14 4.18068e-15 
2164 1 0.0415427 34.3425 1.8075 -2.61725e-05 -1.23946e-14 3.22659e-15 
2166 1 5.42299 34.3425 1.03536e-15 -4.28237e-06 1.87801e-14 1.48839e-15 
2168 1 3.61563 34.3425 1.8075 -1.65445e-05 -1.42976e-14 5.64132e-15 
2170 1 9.03793 34.3425 2.02305e-15 1.34399e-05 1.58554e-15 1.85581e-14 
2172 1 7.23052 34.3425 1.8075 3.93809e-06 -1.75415e-14 -6.67522e-15 
2174 1 12.6527 34.3425 -1.81273e-16 -1.48432e-06 1.43635e-15 8.64586e-15 
2176 1 10.8453 34.3425 1.8075 1.40642e-05 -3.88925e-15 -4.1564e-15 
2178 1 16.2675 34.3425 1.43246e-15 1.19712e-05 -9.13158e-15 1.33921e-14 
2180 1 14.4601 34.3425 1.8075 -4.59553e-06 -1.25568e-14 5.63612e-15 
201 1 0.0415427 2.7489e-15 3.615 -2.61725e-05 1.41553e-15 -2.31065e-15 
202 1 1.8187 1.8075 3.615 8.90886e-06 -7.21645e-15 1.90473e-15 
203 1 1.8187 1.9571e-15 5.4225 8.90886e-06 5.21805e-15 -2.22392e-15 
204 1 0.0415427 1.8075 5.4225 -2.61725e-05 -2.85882e-15 7.36564e-15 
205 1 3.61563 1.3811e-15 3.615 -1.65445e-05 -2.77556e-17 -9.15934e-16 
206 1 5.42299 1.8075 3.615 -4.28237e-06 -5.9952e-15 -5.94837e-15 
207 1 5.42299 5.41275e-16 5.4225 -4.28237e-06 4.66294e-15 -8.35443e-15 
208 1 3.61563 1.8075 5.4225 -1.65445e-05 -1.55431e-15 8.6077e-15 
209 1 7.23052 2.31015e-15 3.615 3.93809e-06 1.56819e-14 -3.60129e-15 
210 1 9.03793 1.8075 3.615 1.34399e-05 5.82867e-16 -1.26375e-15 
211 1 9.03793 1.59439e-15 5.4225 1.34399e-05 -4.69069e-15 7.75074e-15 
212 1 7.23052 1.8075 5.4225 3.93809e-06 -5.27356e-16 -4.4513e-15 
213 1 10.8453 1.03092e-15 3.615 1.40642e-05 1.24067e-14 2.11636e-15 
214 1 12.6527 1.8075 3.615 -1.48432e-06 -8.40994e-15 2.2933e-15 
215 1 12.6527 4.76204e-18 5.4225 -1.48432e-06 4.46865e-15 1.35308e-16 
216 1 10.8453 1.8075 5.4225 1.40642e-05 -3.30291e-15 -3.50414e-15 
217 1 14.4601 1.01763e-15 3.615 -4.59553e-06 -3.66547e-15 1.3713e-15 
218 1 16.2675 1.8075 3.615 1.19712e-05 -2.79637e-15 3.02536e-15 
219 1 16.2675 -1.05792e-15 5.4225 1.19712e-05 4.21885e-15 -1.01585e-14 
220 1 14.4601 1.8075 5.4225 -4.59553e-06 -8.84796e-15 2.47892e-15 
241 1 0.0415427 3.615 3.615 -2.61725e-05 -2.86229e-16 1.68008e-15 
242 1 1.8187 5.4225 3.615 8.90886e-06 3.86843e-15 6.34909e-16 
243 1 1.8187 3.615 5.4225 8.90886e-06 2.7027e-15 6.59889e-15 
244 1 0.0415427 5.4225 5.4225 -2.61725e-05 -1.419e-15 -2.00708e-15 
245 1 3.61563 3.615 3.615 -1.65445e-05 -1.10589e-16 -2.18228e-15 
246 1 5.42299 5.4225 3.615 -4.28237e-06 2.26902e-15 1.91513e-15 
247 1 5.42299 3.615 5.4225 -4.28237e-06 3.39659e-15 7.37778e-15 
248 1 3.61563 5.4225 5.4225 -1.65445e-05 -3.83721e-15 3.2023e-15 
249 1 7.23052 3.615 3.615 3.93809e-06 -9.50628e-16 2.27856e-15 
250 1 9.03793 5.4225 3.615 1.34399e-05 6.63358e-15 -2.668e-15 
251 1 9.03793 3.615 5.4225 1.34399e-05 -4.26395e-15 -8.50015e-17 
252 1 7.23052 5.4225 5.4225 3.93809e-06 8.14626e-15 4.54324e-15 
253 1 10.8453 3.615 3.615 1.40642e-05 4.51028e-17 4.06402e-15 
254 1 12.6527 5.4225 3.615 -1.48432e-06 5.65867e-15 5.05498e-15 
255 1 12.6527 3.615 5.4225 -1.48432e-06 5.36723e-15 -3.88752e-15 
256 1 10.8453 5.4225 5.4225 1.40642e-05 2.22392e-15 1.8683e-15 
257 1 14.4601 3.615 3.615 -4.59553e-06 -3.02015e-15 -2.51188e-15 
258 1 16.2675 5.4225 3.615 1.19712e-05 9.19056e-15 -1.98452e-15 
259 1 16.2675 3.615 5.4225 1.19712e-05 -3.27516e-15 1.85962e-15 
260 1 14.4601 5.4225 5.4225 -4.59553e-06 3.31679e-15 5.95834e-15 
281 1 0.0415427 7.23 3.615 -2.61725e-05 5.74627e-15 3.45904e-15 
282 1 1.8187 9.0375 3.615 8.90886e-06 -3.23873e-15 -2.2031e-15 
283 1 1.8187 7.23 5.4225 8.90886e-06 -2.96985e-15 1.52829e-15 
284 1 0.0415427 9.0375 5.4225 -2.61725e-05 -1.48145e-15 2.7079e-15 
285 1 3.61563 7.23 3.615 -1.65445e-05 -7.61544e-16 -1.3674e-15 
286 1 5.42299 9.0375 3.615 -4.28237e-06 8.76035e-16 1.16573e-15 
287 1 5.42299 7.23 5.4225 -4.28237e-06 -4.22579e-15 2.15279e-15 
288 1 3.61563 9.0375 5.4225 -1.65445e-05 8.86097e-15 1.04309e-14 
289 1 7.23052 7.23 3.615 3.93809e-06 -6.27666e-15 1.13408e-15 
290 1 9.03793 9.0375 3.615 1.34399e-05 4.44263e-15 -1.01308e-15 
291 1 9.03793 7.23 5.4225 1.34399e-05 -2.69229e-15 3.6967e-15 
292 1 7.23052 9.0375 5.4225 3.93809e-06 3.33934e-15 4.53283e-15 
293 1 10.8453 7.23 3.615 1.40642e-05 -8.4069e-15 2.13111e-15 
294 1 12.6527 9.0375 3.615 -1.48432e-06 2.05044e-15 -1.18308e-15 
295 1 12.6527 7.23 5.4225 -1.48432e-06 -5.39152e-15 2.2933e-15 
296 1 10.8453 9.0375 5.4225 1.40642e-05 8.01442e-16 8.46545e-16 
297 1 14.4601 7.23 3.615 -4.59553e-06 7.48186e-15 -2.3332e-15 
298 1 16.2675 9.0375 3.615 1.19712e-05 6.70991e-15 5.75928e-16 
299 1 16.2675 7.23 5.4225 1.19712e-05 -4.85723e-16 4.11476e-15 
300 1 14.4601 9.0375 5.4225 -4.59553e-06 -6.10883e-15 2.92431e-15 
321 1 0.0415427 10.845 3.615 -2.61725e-05 -1.23252e-15 -2.4182e-15 
322 1 1.8187 12.6525 3.615 8.90886e-06 -1.28994e-14 4.73233e-15 
323 1 1.8187 10.845 5.4225 8.90886e-06 4.78784e-16 5.21111e-15 
324 1 0.0415427 12.6525 5.4225 -2.61725e-05 -2.10769e-15 9.19403e-16 
325 1 3.61563 10.845 3.615 -1.65445e-05 3.30421e-15 -5.98176e-15 
326 1 5.42299 12.6525 3.615 -4.28237e-06 -1.82146e-16 -1.16192e-14 
327 1 5.42299 10.845 5.4225 -4.28237e-06 -8.55219e-15 9.24261e-15 
328 1 3.61563 12.6525 5.4225 -1.65445e-05 1.4988e-15 2.55872e-15 
329 1 7.23052 10.845 3.615 3.93809e-06 1.13841e-15 -3.28643e-15 
330 1 9.03793 12.6525 3.615 1.34399e-05 -5.56326e-15 -3.00454e-15 
331 1 9.03793 10.845 5.4225 1.34399e-05 2.56392e-15 3.59435e-15 
332 1 7.23052 12.6525 5.4225 3.93809e-06 -5.42795e-15 1.10849e-14 
333 1 10.8453 10.845 3.615 1.40642e-05 -7.32227e-15 -6.13962e-15 
334 1 12.6527 12.6525 3.615 -1.48432e-06 2.14412e-15 9.85323e-16 
335 1 12.6527 10.845 5.4225 -1.48432e-06 9.87058e-15 5.96745e-15 
336 1 10.8453 12.6525 5.4225 1.40642e-05 1.47451e-15 5.3256e-16 
337 1 14.4601 10.845 3.615 -4.59553e-06 -2.9976e-15 6.09755e-16 
338 1 16.2675 12.6525 3.615 1.19712e-05 3.4972e-15 -5.20417e-16 
339 1 16.2675 10.845 5.4225 1.19712e-05 -2.35922e-15 -1.63758e-15 
340 1 14.4601 12.6525 5.4225 -4.59553e-06 3.7856e-15 9.13505e-15 
361 1 0.0415427 14.46 3.615 -2.61725e-05 7.70477e-15 -6.08021e-16 
362 1 1.8187 16.2675 3.615 8.90886e-06 3.87407e-15 -1.50444e-15 
363 1 1.8187 14.46 5.4225 8.90886e-06 6.00214e-16 4.41314e-15 
364 1 0.0415427 16.2675 5.4225 -2.61725e-05 5.29351e-15 5.54244e-16 
365 1 3.61563 14.46 3.615 -1.65445e-05 6.66047e-15 1.76942e-15 
366 1 5.42299 16.2675 3.615 -4.28237e-06 -1.63801e-14 2.05174e-15 
367 1 5.42299 14.46 5.4225 -4.28237e-06 8.58341e-15 5.23193e-15 
368 1 3.61563 16.2675 5.4225 -1.65445e-05 6.30008e-15 6.71815e-15 
369 1 7.23052 14.46 3.615 3.93809e-06 1.39853e-14 -4.28173e-15 
370 1 9.03793 16.2675 3.615 1.34399e-05 -2.10136e-14 -1.61459e-15 
371 1 9.03793 14.46 5.4225 1.34399e-05 4.58314e-15 3.21444e-15 
372 1 7.23052 16.2675 5.4225 3.93809e-06 -1.78169e-14 4.41053e-16 
373 1 10.8453 14.46 3.615 1.40642e-05 -6.53557e-15 -7.37518e-15 
374 1 12.6527 16.2675 3.615 -1.48432e-06 -1.09496e-14 9.14113e-15 
375 1 12.6527 14.46 5.4225 -1.48432e-06 3.81639e-16 -1.1241e-15 
376 1 10.8453 16.2675 5.4225 1.40642e-05 1.23408e-14 1.61555e-14 
377 1 14.4601 14.46 3.615 -4.59553e-06 -1.24293e-15 1.1588e-15 
378 1 16.2675 16.2675 3.615 1.19712e-05 3.17801e-15 3.36536e-15 
379 1 16.2675 14.46 5.4225 1.19712e-05 -4.38538e-15 -1.52656e-15 
380 1 14.4601 16.2675 5.4225 -4.59553e-06 -1.13963e-14 1.64061e-15 
2201 1 0.0415427 18.075 3.615 -2.61725e-05 -5.28787e-15 4.95524e-15 
2203 1 1.8187 18.075 5.4225 8.90886e-06 -1.04691e-14 8.89913e-15 
2205 1 3.61563 18.075 3.615 -1.65445e-05 -1.83534e-15 -3.89792e-15 
2207 1 5.42299 18.075 5.4225 -4.28237e-06 1.98452e-15 6.87991e-15 
2209 1 7.23052 18.075 3.615 3.93809e-06 6.03901e-15 -2.54441e-15 
2211 1 9.03793 18.075 5.4225 1.34399e-05 5.47479e-15 1.33366e-14 
2213 1 10.8453 18.075 3.615 1.40642e-05 1.34515e-14 1.61373e-15 
2215 1 12.6527 18.075 5.4225 -1.48432e-06 6.21725e-15 -2.34882e-15 
2217 1 14.4601 18.075 3.615 -4.59553e-06 1.27502e-14 4.29344e-15 
2219 1 16.2675 18.075 5.4225 1.19712e-05 4.46865e-15 1.17614e-14 
2202 1 1.8187 19.8825 3.615 8.90886e-06 1.9775e-14 -4.60396e-15 
2241 1 0.0415427 21.69 3.615 -2.61725e-05 -9.75782e-17 -3.86149e-15 
2204 1 0.0415427 19.8825 5.4225 -2.61725e-05 2.70357e-15 -2.07733e-15 
2243 1 1.8187 21.69 5.4225 8.90886e-06 2.29504e-15 6.2797e-15 
2206 1 5.42299 19.8825 3.615 -4.28237e-06 2.13913e-14 -6.20164e-16 
2245 1 3.61563 21.69 3.615 -1.65445e-05 -2.24478e-14 -1.31709e-15 
2208 1 3.61563 19.8825 5.4225 -1.65445e-05 -4.80952e-15 -3.8719e-15 
2247 1 5.42299 21.69 5.4225 -4.28237e-06 -1.23009e-14 -4.71845e-15 
2210 1 9.03793 19.8825 3.615 1.34399e-05 -2.64545e-16 -5.38198e-16 
2249 1 7.23052 21.69 3.615 3.93809e-06 -1.70415e-14 -1.14552e-14 
2212 1 7.23052 19.8825 5.4225 3.93809e-06 -5.02289e-15 -2.35489e-15 
2251 1 9.03793 21.69 5.4225 1.34399e-05 -8.43423e-15 3.407e-15 
2214 1 12.6527 19.8825 3.615 -1.48432e-06 -1.82298e-14 -9.03357e-15 
2253 1 10.8453 21.69 3.615 1.40642e-05 1.33786e-14 -9.28944e-16 
2216 1 10.8453 19.8825 5.4225 1.40642e-05 -9.12204e-15 8.35269e-16 
2255 1 12.6527 21.69 5.4225 -1.48432e-06 1.26253e-14 1.2431e-14 
2218 1 16.2675 19.8825 3.615 1.19712e-05 1.45717e-15 -3.26128e-15 
2257 1 14.4601 21.69 3.615 -4.59553e-06 1.25243e-14 -9.37098e-15 
2220 1 14.4601 19.8825 5.4225 -4.59553e-06 -1.29566e-14 8.30759e-15 
2259 1 16.2675 21.69 5.4225 1.19712e-05 -5.05151e-15 -4.51722e-15 
2242 1 1.8187 23.4975 3.615 8.90886e-06 1.17332e-14 1.40166e-15 
2281 1 0.0415427 25.305 3.615 -2.61725e-05 -4.62651e-15 3.47465e-15 
2244 1 0.0415427 23.4975 5.4225 -2.61725e-05 2.38438e-15 2.18662e-15 
2283 1 1.8187 25.305 5.4225 8.90886e-06 -6.52256e-15 -1.28855e-14 
2246 1 5.42299 23.4975 3.615 -4.28237e-06 1.42707e-14 -7.5712e-15 
2285 1 3.61563 25.305 3.615 -1.65445e-05 -9.18666e-15 -7.60633e-15 
2248 1 3.61563 23.4975 5.4225 -1.65445e-05 5.76796e-15 6.20424e-15 
2287 1 5.42299 25.305 5.4225 -4.28237e-06 -3.81466e-15 5.67948e-15 
2250 1 9.03793 23.4975 3.615 1.34399e-05 1.04899e-14 -3.91831e-15 
2289 1 7.23052 25.305 3.615 3.93809e-06 -3.76869e-15 -6.20901e-15 
2252 1 7.23052 23.4975 5.4225 3.93809e-06 -1.67834e-15 1.00623e-14 
2291 1 9.03793 25.305 5.4225 1.34399e-05 -4.61783e-15 1.1071e-14 
2254 1 12.6527 23.4975 3.615 -1.48432e-06 -9.60907e-15 7.01696e-16 
2293 1 10.8453 25.305 3.615 1.40642e-05 -3.79254e-15 4.7449e-15 
2256 1 10.8453 23.4975 5.4225 1.40642e-05 -3.47769e-15 1.043e-15 
2295 1 12.6527 25.305 5.4225 -1.48432e-06 1.19384e-14 -1.7937e-15 
2258 1 16.2675 23.4975 3.615 1.19712e-05 9.61731e-15 -7.16788e-15 
2297 1 14.4601 25.305 3.615 -4.59553e-06 -1.04326e-14 -4.19803e-16 
2260 1 14.4601 23.4975 5.4225 -4.59553e-06 1.3739e-15 -1.81886e-15 
2299 1 16.2675 25.305 5.4225 1.19712e-05 -1.04743e-14 -2.09555e-15 
2282 1 1.8187 27.1125 3.615 8.90886e-06 7.42592e-15 7.87304e-15 
2321 1 0.0415427 28.92 3.615 -2.61725e-05 -8.57821e-16 -1.93508e-15 
2284 1 0.0415427 27.1125 5.4225 -2.61725e-05 -7.80192e-15 -1.81799e-15 
2323 1 1.8187 28.92 5.4225 8.90886e-06 2.76168e-15 -1.14492e-16 
2286 1 5.42299 27.1125 3.615 -4.28237e-06 1.02743e-14 -1.87957e-15 
2325 1 3.61563 28.92 3.615 -1.65445e-05 -6.09322e-15 3.31983e-15 
2288 1 3.61563 27.1125 5.4225 -1.65445e-05 1.49715e-14 -2.19529e-15 
2327 1 5.42299 28.92 5.4225 -4.28237e-06 6.97359e-16 1.55084e-15 
2290 1 9.03793 27.1125 3.615 1.34399e-05 -7.18479e-15 4.04017e-15 
2329 1 7.23052 28.92 3.615 3.93809e-06 1.07987e-15 3.34802e-16 
2292 1 7.23052 27.1125 5.4225 3.93809e-06 8.13412e-15 7.53304e-16 
2331 1 9.03793 28.92 5.4225 1.34399e-05 -1.04083e-16 -4.03497e-15 
2294 1 12.6527 27.1125 3.615 -1.48432e-06 -9.21919e-15 -3.18105e-15 
2333 1 10.8453 28.92 3.615 1.40642e-05 1.56841e-14 -6.34345e-15 
2296 1 10.8453 27.1125 5.4225 1.40642e-05 2.7066e-15 1.02739e-15 
2335 1 12.6527 28.92 5.4225 -1.48432e-06 1.31544e-14 2.91087e-15 
2298 1 16.2675 27.1125 3.615 1.19712e-05 2.67841e-15 2.72699e-15 
2337 1 14.4601 28.92 3.615 -4.59553e-06 1.61563e-14 -7.73687e-16 
2300 1 14.4601 27.1125 5.4225 -4.59553e-06 6.43756e-15 9.29465e-15 
2339 1 16.2675 28.92 5.4225 1.19712e-05 -3.72272e-15 4.55191e-15 
2322 1 1.8187 30.7275 3.615 8.90886e-06 1.14401e-14 2.64719e-15 
2361 1 0.0415427 32.535 3.615 -2.61725e-05 2.19963e-14 -1.1588e-15 
2324 1 0.0415427 30.7275 5.4225 -2.61725e-05 -4.31859e-15 6.75371e-15 
2363 1 1.8187 32.535 5.4225 8.90886e-06 -1.93413e-14 -6.06156e-15 
2326 1 5.42299 30.7275 3.615 -4.28237e-06 -9.34149e-16 -6.43192e-15 
2365 1 3.61563 32.535 3.615 -1.65445e-05 -1.41415e-14 -2.08167e-17 
2328 1 3.61563 30.7275 5.4225 -1.65445e-05 1.14136e-14 6.89856e-15 
2367 1 5.42299 32.535 5.4225 -4.28237e-06 -1.44789e-14 9.96469e-15 
2330 1 9.03793 30.7275 3.615 1.34399e-05 -1.92641e-15 -4.93919e-15 
2369 1 7.23052 32.535 3.615 3.93809e-06 1.98591e-14 -1.32186e-15 
2332 1 7.23052 30.7275 5.4225 3.93809e-06 -2.50581e-15 3.04184e-15 
2371 1 9.03793 32.535 5.4225 1.34399e-05 -1.83126e-14 5.27399e-15 
2334 1 12.6527 30.7275 3.615 -1.48432e-06 -1.98192e-14 -1.15749e-15 
2373 1 10.8453 32.535 3.615 1.40642e-05 -1.7937e-14 -1.74166e-15 
2336 1 10.8453 30.7275 5.4225 1.40642e-05 1.8735e-15 4.20757e-15 
2375 1 12.6527 32.535 5.4225 -1.48432e-06 1.04547e-14 2.66844e-15 
2338 1 16.2675 30.7275 3.615 1.19712e-05 -1.25733e-14 -5.48173e-15 
2377 1 14.4601 32.535 3.615 -4.59553e-06 1.72965e-14 7.63278e-16 
2340 1 14.4601 30.7275 5.4225 -4.59553e-06 -9.51496e-15 1.80932e-15 
2379 1 16.2675 32.535 5.4225 1.19712e-05 9.14199e-15 -1.55431e-15 
2362 1 1.8187 34.3425 3.615 8.90886e-06 -6.75154e-15 -7.18176e-15 
2364 1 0.0415427 34.3425 5.4225 -2.61725e-05 -1.31197e-14 -2.0435e-15 
2366 1 5.42299 34.3425 3.615 -4.28237e-06 -6.00908e-15 4.36803e-15 
2368 1 3.61563 34.3425 5.4225 -1.65445e-05 -4.02456e-15 -3.75394e-15 
2370 1 9.03793 34.3425 3.615 1.34399e-05 -6.50521e-15 5.51642e-16 
2372 1 7.23052 34.3425 5.4225 3.93809e-06 -1.09739e-14 1.31492e-14 
2374 1 12.6527 34.3425 3.615 -1.48432e-06 -1.15324e-14 3.2023e-15 
2376 1 10.8453 34.3425 5.4225 1.40642e-05 -9.5271e-15 4.80171e-15 
2378 1 16.2675 34.3425 3.615 1.19712e-05 1.74583e-14 3.22659e-15 
2380 1 14.4601 34.3425 5.4225 -4.59553e-06 1.65215e-14 -1.05731e-14 
401 1 0.0415427 3.40902e-15 7.23 -2.61725e-05 5.32907e-15 1.21431e-15 
402 1 1.8187 1.8075 7.23 8.90886e-06 -4.52416e-15 -2.31239e-15 
403 1 1.8187 8.82372e-16 9.0375 8.90886e-06 1.05471e-15 3.24046e-15 
404 1 0.0415427 1.8075 9.0375 -2.61725e-05 2.498e-15 6.93889e-15 
405 1 3.61563 7.68127e-16 7.23 -1.65445e-05 9.74221e-15 -7.24421e-15 
406 1 5.42299 1.8075 7.23 -4.28237e-06 3.4972e-15 1.13538e-15 
407 1 5.42299 1.92221e-15 9.0375 -4.28237e-06 3.88578e-16 1.06547e-14 
408 1 3.61563 1.8075 9.0375 -1.65445e-05 -3.58047e-15 4.59008e-15 
409 1 7.23052 -1.24588e-15 7.23 3.93809e-06 2.33147e-15 -2.35229e-15 
410 1 9.03793 1.8075 7.23 1.34399e-05 -3.02536e-15 -1.93769e-15 
411 1 9.03793 -7.56626e-16 9.0375 1.34399e-05 7.29972e-15 1.02522e-14 
412 1 7.23052 1.8075 9.0375 3.93809e-06 -9.71445e-15 1.25455e-14 
413 1 10.8453 -1.49811e-15 7.23 1.40642e-05 5.55112e-17 -6.19643e-15 
414 1 12.6527 1.8075 7.23 -1.48432e-06 -1.33227e-15 -4.64472e-15 
415 1 12.6527 -9.44774e-16 9.0375 -1.48432e-06 7.02216e-15 5.25274e-15 
416 1 10.8453 1.8075 9.0375 1.40642e-05 2.498e-16 4.77396e-15 
417 1 14.4601 -1.4596e-15 7.23 -4.59553e-06 6.76889e-15 2.91434e-15 
418 1 16.2675 1.8075 7.23 1.19712e-05 -4.92661e-16 1.23512e-15 
419 1 16.2675 1.32856e-15 9.0375 1.19712e-05 2.59515e-15 1.78746e-14 
420 1 14.4601 1.8075 9.0375 -4.59553e-06 -1.29037e-14 -1.07119e-16 
441 1 0.0415427 3.615 7.23 -2.61725e-05 4.80518e-16 5.50471e-15 
442 1 1.8187 5.4225 7.23 8.90886e-06 1.31666e-15 -3.75741e-15 
443 1 1.8187 3.615 9.0375 8.90886e-06 2.61943e-15 2.89005e-15 
444 1 0.0415427 5.4225 9.0375 -2.61725e-05 5.25621e-16 9.24608e-16 
445 1 3.61563 3.615 7.23 -1.65445e-05 7.68049e-16 -7.35002e-15 
446 1 5.42299 5.4225 7.23 -4.28237e-06 1.37217e-15 -4.61783e-15 
447 1 5.42299 3.615 9.0375 -4.28237e-06 -2.1233e-15 1.07206e-15 
448 1 3.61563 5.4225 9.0375 -1.65445e-05 5.35509e-15 6.44276e-15 
449 1 7.23052 3.615 7.23 3.93809e-06 6.67695e-15 3.06179e-16 
450 1 9.03793 5.4225 7.23 1.34399e-05 -4.49293e-16 3.46945e-18 
451 1 9.03793 3.615 9.0375 1.34399e-05 2.16147e-15 2.02789e-15 
452 1 7.23052 5.4225 9.0375 3.93809e-06 7.32053e-16 2.5327e-15 
453 1 10.8453 3.615 7.23 1.40642e-05 8.58688e-17 -5.20417e-16 
454 1 12.6527 5.4225 7.23 -1.48432e-06 5.32213e-15 -7.17135e-15 
455 1 12.6527 3.615 9.0375 -1.48432e-06 -6.93542e-15 2.21524e-15 
456 1 10.8453 5.4225 9.0375 1.40642e-05 6.08714e-15 -2.05218e-15 
457 1 14.4601 3.615 7.23 -4.59553e-06 3.55618e-16 -7.06119e-15 
458 1 16.2675 5.4225 7.23 1.19712e-05 8.74995e-15 -5.27356e-16 