ITEM: TIMESTEP
0
ITEM: NUMBER OF ATOMS
4000
ITEM: BOX BOUNDS ss pp pp
-3.6150000000000002e-03 3.4346115000000005e+01
0.0000000000000000e+00 3.6149999999999999e+01
0.0000000000000000e+00 3.6149999999999999e+01
ITEM: ATOMS id type x y z fx fy fz 
1 1 0 0 0 0.126799 6.55032e-15 6.57807e-15 
2 1 1.8075 1.8075 0 -0.0891745 -1.02696e-15 9.01015e-15 
3 1 1.8075 0 1.8075 -0.0891745 9.04832e-15 -1.00614e-15 
4 1 0 1.8075 1.8075 0.126799 -1.11022e-15 -1.33227e-15 
5 1 3.615 0 0 -0.0362919 9.35363e-15 9.22873e-15 
6 1 5.4225 1.8075 0 -0.000981516 -1.11022e-15 9.16628e-15 
7 1 5.4225 0 1.8075 -0.000981516 9.35363e-15 -1.20737e-15 
8 1 3.615 1.8075 1.8075 -0.0362919 -9.99201e-16 -1.33921e-15 
9 1 7.23 0 0 -2.29677e-15 9.46465e-15 9.39526e-15 
10 1 9.0375 1.8075 0 6.0698e-15 -1.33227e-15 9.90874e-15 
11 1 9.0375 0 1.8075 6.05939e-15 9.88098e-15 -1.2837e-15 
12 1 7.23 1.8075 1.8075 -2.26772e-15 -9.99201e-16 -1.31839e-15 
13 1 10.845 0 0 -5.67298e-15 9.99201e-15 1.00059e-14 
14 1 12.6525 1.8075 0 6.28143e-15 -1.11022e-15 9.96425e-15 
15 1 12.6525 0 1.8075 6.37858e-15 9.96425e-15 -1.10328e-15 
16 1 10.845 1.8075 1.8075 -6.80836e-15 -8.88178e-16 -1.34615e-15 
17 1 14.46 0 0 -1.22471e-14 9.99548e-15 9.91394e-15 
18 1 16.2675 1.8075 0 1.27051e-14 -1.39472e-15 9.84629e-15 
19 1 16.2675 0 1.8075 1.28023e-14 9.90874e-15 -1.26288e-15 
20 1 14.46 1.8075 1.8075 -1.34337e-14 -1.08073e-15 -1.38908e-15 
41 1 0 3.615 0 0.126799 1.08854e-16 6.46705e-15 
43 1 1.8075 3.615 1.8075 -0.0891745 1.27068e-16 -1.08247e-15 
42 1 1.8075 5.4225 0 -0.0891745 1.68268e-16 8.96505e-15 
44 1 0 5.4225 1.8075 0.126799 1.94723e-16 -1.27676e-15 
45 1 3.615 3.615 0 -0.0362919 1.42247e-16 9.07607e-15 
47 1 5.4225 3.615 1.8075 -0.000981516 3.9465e-17 -1.38778e-15 
46 1 5.4225 5.4225 0 -0.000981516 1.61329e-16 9.15934e-15 
48 1 3.615 5.4225 1.8075 -0.0362919 2.19443e-16 -1.38778e-15 
49 1 7.23 3.615 0 -2.30848e-15 6.59195e-17 9.32587e-15 
51 1 9.0375 3.615 1.8075 6.73593e-15 -1.73472e-18 -1.11022e-15 
50 1 9.0375 5.4225 0 6.01255e-15 2.60209e-16 9.90874e-15 
52 1 7.23 5.4225 1.8075 -2.23085e-15 2.4503e-16 -1.22125e-15 
53 1 10.845 3.615 0 -6.245e-15 1.60462e-17 9.88098e-15 
55 1 12.6525 3.615 1.8075 7.01869e-15 -1.73472e-18 -1.05471e-15 
54 1 12.6525 5.4225 0 6.31613e-15 2.27249e-16 9.9365e-15 
56 1 10.845 5.4225 1.8075 -6.85216e-15 1.36176e-16 -1.27676e-15 
57 1 14.46 3.615 0 -1.28716e-14 5.72459e-17 9.88619e-15 
59 1 16.2675 3.615 1.8075 1.33574e-14 1.249e-16 -1.19349e-15 
58 1 16.2675 5.4225 0 1.27606e-14 1.63064e-16 9.8116e-15 
60 1 14.46 5.4225 1.8075 -1.34146e-14 1.94723e-16 -1.27502e-15 
81 1 0 7.23 0 0.126799 -1.46628e-15 6.57807e-15 
83 1 1.8075 7.23 1.8075 -0.0891745 -2.14195e-15 -1.02696e-15 
82 1 1.8075 9.0375 0 -0.0891745 6.08021e-15 9.57567e-15 
84 1 0 9.0375 1.8075 0.126799 4.39449e-15 -1.27676e-15 
85 1 3.615 7.23 0 -0.0362919 -2.13024e-15 9.29812e-15 
87 1 5.4225 7.23 1.8075 -0.000981516 -2.22608e-15 -1.19349e-15 
86 1 5.4225 9.0375 0 -0.000981516 6.09755e-15 9.96425e-15 
88 1 3.615 9.0375 1.8075 -0.0362919 6.68389e-15 -1.249e-15 
89 1 7.23 7.23 0 -2.22565e-15 -2.15106e-15 9.27036e-15 
91 1 9.0375 7.23 1.8075 6.09582e-15 -2.77209e-15 -1.249e-15 
90 1 9.0375 9.0375 0 5.44356e-15 5.41407e-15 1.03806e-14 
92 1 7.23 9.0375 1.8075 -2.79117e-15 6.02773e-15 -1.36002e-15 
93 1 10.845 7.23 0 -5.66474e-15 -2.68839e-15 9.79772e-15 
95 1 12.6525 7.23 1.8075 6.34909e-15 -2.81025e-15 -1.249e-15 
94 1 12.6525 9.0375 0 5.78183e-15 5.44703e-15 1.03528e-14 
96 1 10.845 9.0375 1.8075 -6.27623e-15 6.1149e-15 -1.30451e-15 
97 1 14.46 7.23 0 -1.2379e-14 -2.82933e-15 9.86537e-15 
99 1 16.2675 7.23 1.8075 1.28161e-14 -2.88658e-15 -1.22125e-15 
98 1 16.2675 9.0375 0 1.21153e-14 5.42622e-15 1.03459e-14 
100 1 14.46 9.0375 1.8075 -1.30711e-14 5.98003e-15 -1.30278e-15 
121 1 0 10.845 0 0.126799 -4.18502e-15 7.04992e-15 
123 1 1.8075 10.845 1.8075 -0.0891745 -6.81009e-15 -9.99201e-16 
122 1 1.8075 12.6525 0 -0.0891745 6.17041e-15 9.70057e-15 
124 1 0 12.6525 1.8075 0.126799 4.97042e-15 -1.27676e-15 
125 1 3.615 10.845 0 -0.0362919 -6.25715e-15 9.79772e-15 
127 1 5.4225 10.845 1.8075 -0.000981516 -6.87861e-15 -1.19349e-15 
126 1 5.4225 12.6525 0 -0.000981516 6.34909e-15 9.90874e-15 
128 1 3.615 12.6525 1.8075 -0.0362919 6.9107e-15 -1.249e-15 
129 1 7.23 10.845 0 -2.90696e-15 -5.73933e-15 9.82547e-15 
131 1 9.0375 10.845 1.8075 6.15827e-15 -6.33825e-15 -1.249e-15 
130 1 9.0375 12.6525 0 5.42275e-15 5.79745e-15 1.04639e-14 
132 1 7.23 12.6525 1.8075 -2.88658e-15 6.34128e-15 -1.30451e-15 
133 1 10.845 10.845 0 -5.64999e-15 -5.75581e-15 1.03528e-14 
135 1 12.6525 10.845 1.8075 6.3248e-15 -6.29228e-15 -1.16573e-15 
134 1 12.6525 12.6525 0 5.84081e-15 5.7003e-15 1.03528e-14 
136 1 10.845 12.6525 1.8075 -6.24674e-15 6.27233e-15 -1.13798e-15 
137 1 14.46 10.845 0 -1.24067e-14 -5.64306e-15 1.04569e-14 
139 1 16.2675 10.845 1.8075 1.28092e-14 -6.20337e-15 -1.17961e-15 
138 1 16.2675 12.6525 0 1.2091e-14 5.86683e-15 1.02973e-14 
140 1 14.46 12.6525 1.8075 -1.3085e-14 6.37468e-15 -1.33053e-15 
161 1 0 14.46 0 0.126799 -8.6914e-15 7.07767e-15 
163 1 1.8075 14.46 1.8075 -0.0891745 -1.32498e-14 -1.19349e-15 
162 1 1.8075 16.2675 0 -0.0891745 1.27381e-14 9.70057e-15 
164 1 0 16.2675 1.8075 0.126799 9.1498e-15 -1.33227e-15 
165 1 3.615 14.46 0 -0.0362919 -1.27966e-14 9.76996e-15 
167 1 5.4225 14.46 1.8075 -0.000981516 -1.34094e-14 -1.249e-15 
166 1 5.4225 16.2675 0 -0.000981516 1.28244e-14 9.79772e-15 
168 1 3.615 16.2675 1.8075 -0.0362919 1.35217e-14 -1.27676e-15 
169 1 7.23 14.46 0 -2.86837e-15 -1.23217e-14 9.88098e-15 
171 1 9.0375 14.46 1.8075 6.01255e-15 -1.29861e-14 -1.16573e-15 
170 1 9.0375 16.2675 0 5.35509e-15 1.21947e-14 1.02973e-14 
172 1 7.23 16.2675 1.8075 -2.85015e-15 1.28317e-14 -1.22125e-15 
173 1 10.845 14.46 0 -5.65563e-15 -1.24189e-14 1.04361e-14 
175 1 12.6525 14.46 1.8075 6.36817e-15 -1.30525e-14 -1.13798e-15 
174 1 12.6525 16.2675 0 5.88765e-15 1.22103e-14 1.03251e-14 
176 1 10.845 16.2675 1.8075 -6.25368e-15 1.2866e-14 -1.27676e-15 
177 1 14.46 14.46 0 -1.22194e-14 -1.22333e-14 1.05142e-14 
179 1 16.2675 14.46 1.8075 1.28023e-14 -1.29757e-14 -1.249e-15 
178 1 16.2675 16.2675 0 1.20008e-14 1.21327e-14 1.03598e-14 
180 1 14.46 16.2675 1.8075 -1.29046e-14 1.28916e-14 -1.35655e-15 
2001 1 0 18.075 0 0.126799 -4.56666e-16 7.60503e-15 
2003 1 1.8075 18.075 1.8075 -0.0891745 -3.08781e-16 -1.16573e-15 
2005 1 3.615 18.075 0 -0.0362919 -4.13298e-16 1.04361e-14 
2007 1 5.4225 18.075 1.8075 -0.000981516 -3.81639e-16 -1.16573e-15 
2009 1 7.23 18.075 0 -3.46598e-15 -4.17201e-16 1.04639e-14 
2011 1 9.0375 18.075 1.8075 6.61277e-15 -4.28477e-16 -1.27676e-15 
2013 1 10.845 18.075 0 -6.21898e-15 -4.70544e-16 1.09912e-14 
2015 1 12.6525 18.075 1.8075 6.86083e-15 -3.31332e-16 -1.36002e-15 
2017 1 14.46 18.075 0 -1.28578e-14 -5.11743e-16 1.10294e-14 
2019 1 16.2675 18.075 1.8075 1.3399e-14 -3.33067e-16 -1.25594e-15 
2002 1 1.8075 19.8825 0 -0.0891745 2.36356e-16 1.04361e-14 
2004 1 0 19.8825 1.8075 0.126799 4.23706e-16 -1.249e-15 
2041 1 0 21.69 0 0.126799 -8.58905e-15 7.04992e-15 
2043 1 1.8075 21.69 1.8075 -0.0891745 -1.32706e-14 -1.08247e-15 
2006 1 5.4225 19.8825 0 -0.000981516 3.31766e-16 1.05194e-14 
2008 1 3.615 19.8825 1.8075 -0.0362919 3.55185e-16 -1.22125e-15 
2045 1 3.615 21.69 0 -0.0362919 -1.27012e-14 9.90874e-15 
2047 1 5.4225 21.69 1.8075 -0.000981516 -1.33574e-14 -1.08247e-15 
2010 1 9.0375 19.8825 0 5.94316e-15 3.94216e-16 1.09912e-14 
2012 1 7.23 19.8825 1.8075 -3.53667e-15 3.79904e-16 -1.249e-15 
2049 1 7.23 21.69 0 -2.86229e-15 -1.21361e-14 9.76996e-15 
2051 1 9.0375 21.69 1.8075 6.00214e-15 -1.28023e-14 -1.11022e-15 
2014 1 12.6525 19.8825 0 6.37684e-15 4.09828e-16 1.10467e-14 
2016 1 10.845 19.8825 1.8075 -6.82093e-15 3.95083e-16 -1.16573e-15 
2053 1 10.845 21.69 0 -5.64306e-15 -1.20958e-14 1.03806e-14 
2055 1 12.6525 21.69 1.8075 6.3647e-15 -1.27624e-14 -1.08247e-15 
2018 1 16.2675 19.8825 0 1.26704e-14 4.16334e-16 1.09635e-14 
2020 1 14.46 19.8825 1.8075 -1.36089e-14 3.40873e-16 -1.02262e-15 
2057 1 14.46 21.69 0 -1.22888e-14 -1.20169e-14 1.04673e-14 
2059 1 16.2675 21.69 1.8075 1.28127e-14 -1.28439e-14 -1.19349e-15 
2042 1 1.8075 23.4975 0 -0.0891745 1.26947e-14 9.74221e-15 
2044 1 0 23.4975 1.8075 0.126799 9.08735e-15 -1.249e-15 
2081 1 0 25.305 0 0.126799 -4.86156e-16 7.60503e-15 
2083 1 1.8075 25.305 1.8075 -0.0891745 -3.36536e-16 -1.22125e-15 
2046 1 5.4225 23.4975 0 -0.000981516 1.27671e-14 9.85323e-15 
2048 1 3.615 23.4975 1.8075 -0.0362919 1.33461e-14 -1.16573e-15 
2085 1 3.615 25.305 0 -0.0362919 -4.41053e-16 1.05471e-14 
2087 1 5.4225 25.305 1.8075 -0.000981516 -4.09395e-16 -1.16573e-15 
2050 1 9.0375 23.4975 0 5.42968e-15 1.21739e-14 1.02973e-14 
2052 1 7.23 23.4975 1.8075 -2.91564e-15 1.283e-14 -1.249e-15 
2089 1 7.23 25.305 0 -3.44516e-15 -4.17201e-16 1.05471e-14 
2091 1 9.0375 25.305 1.8075 6.62664e-15 -4.49293e-16 -1.27676e-15 
2054 1 12.6525 23.4975 0 5.84949e-15 1.20993e-14 1.02696e-14 
2056 1 10.845 23.4975 1.8075 -6.19296e-15 1.27966e-14 -1.22125e-15 
2093 1 10.845 25.305 0 -6.20337e-15 -5.29524e-16 1.10467e-14 
2095 1 12.6525 25.305 1.8075 6.84695e-15 -3.69496e-16 -1.27676e-15 
2058 1 16.2675 23.4975 0 1.2032e-14 1.2032e-14 1.03806e-14 
2060 1 14.46 23.4975 1.8075 -1.29237e-14 1.27988e-14 -1.40686e-15 
2097 1 14.46 25.305 0 -1.2948e-14 -5.34729e-16 1.10641e-14 
2099 1 16.2675 25.305 1.8075 1.34476e-14 -3.85109e-16 -1.31145e-15 
2082 1 1.8075 27.1125 0 -0.0891745 1.90386e-16 1.04777e-14 
2084 1 0 27.1125 1.8075 0.126799 3.56486e-16 -1.19349e-15 
2121 1 0 28.92 0 0.126799 -7.94503e-15 7.18869e-15 
2123 1 1.8075 28.92 1.8075 -0.0891745 -1.29306e-14 -9.99201e-16 
2086 1 5.4225 27.1125 0 -0.000981516 2.85796e-16 1.05749e-14 
2088 1 3.615 27.1125 1.8075 -0.0362919 3.01408e-16 -1.22125e-15 
2125 1 3.615 28.92 0 -0.0362919 -1.22025e-14 9.85323e-15 
2127 1 5.4225 28.92 1.8075 -0.000981516 -1.28907e-14 -1.11022e-15 
2090 1 9.0375 27.1125 0 5.93796e-15 3.32633e-16 1.1019e-14 
2092 1 7.23 27.1125 1.8075 -3.52279e-15 2.81459e-16 -1.27676e-15 
2129 1 7.23 28.92 0 -2.83974e-15 -1.15541e-14 9.85323e-15 
2131 1 9.0375 28.92 1.8075 6.03857e-15 -1.21327e-14 -1.16573e-15 
2094 1 12.6525 27.1125 0 6.37858e-15 3.51715e-16 1.1019e-14 
2096 1 10.845 27.1125 1.8075 -6.79491e-15 3.27429e-16 -1.22125e-15 
2133 1 10.845 28.92 0 -5.62224e-15 -1.15155e-14 1.04916e-14 
2135 1 12.6525 28.92 1.8075 6.3196e-15 -1.21066e-14 -1.19349e-15 
2098 1 16.2675 27.1125 0 1.26843e-14 4.02456e-16 1.09704e-14 
2100 1 14.46 27.1125 1.8075 -1.36384e-14 3.10516e-16 -1.18915e-15 
2137 1 14.46 28.92 0 -1.23374e-14 -1.14878e-14 1.05541e-14 
2139 1 16.2675 28.92 1.8075 1.28161e-14 -1.21327e-14 -1.249e-15 
2122 1 1.8075 30.7275 0 -0.0891745 -3.13551e-16 9.08995e-15 
2124 1 0 30.7275 1.8075 0.126799 -5.04371e-16 -1.27676e-15 
2161 1 0 32.535 0 0.126799 1.74583e-14 7.07941e-15 
2163 1 1.8075 32.535 1.8075 -0.0891745 2.63344e-14 -1.21344e-15 
2126 1 5.4225 30.7275 0 -0.000981516 -4.75748e-16 9.07607e-15 
2128 1 3.615 30.7275 1.8075 -0.0362919 -5.1131e-16 -1.27676e-15 
2165 1 3.615 32.535 0 -0.0362919 2.5889e-14 9.89486e-15 
2167 1 5.4225 32.535 1.8075 -0.000981516 2.64793e-14 -1.33227e-15 
2130 1 9.0375 30.7275 0 4.83294e-15 -3.60389e-16 9.74221e-15 
2132 1 7.23 30.7275 1.8075 -2.25384e-15 -4.35849e-16 -1.249e-15 
2169 1 7.23 32.535 0 -2.10942e-15 2.59237e-14 9.81853e-15 
2171 1 9.0375 32.535 1.8075 6.06112e-15 2.7125e-14 -1.3327e-15 
2134 1 12.6525 30.7275 0 5.24754e-15 -4.34982e-16 9.71445e-15 
2136 1 10.845 30.7275 1.8075 -5.64392e-15 -3.62124e-16 -1.36002e-15 
2173 1 10.845 32.535 0 -5.71591e-15 2.65066e-14 1.04708e-14 
2175 1 12.6525 32.535 1.8075 6.30745e-15 2.71558e-14 -1.27676e-15 
2138 1 16.2675 30.7275 0 1.14353e-14 -4.996e-16 9.86711e-15 
2140 1 14.46 30.7275 1.8075 -1.22471e-14 -4.2414e-16 -1.2915e-15 
2177 1 14.46 32.535 0 -1.28994e-14 2.59107e-14 1.05541e-14 
2179 1 16.2675 32.535 1.8075 1.34545e-14 2.65656e-14 -1.39472e-15 
2162 1 1.8075 34.3425 0 -0.0891745 -2.54935e-14 9.81853e-15 
2164 1 0 34.3425 1.8075 0.126799 -1.76144e-14 -1.2837e-15 
2166 1 5.4225 34.3425 0 -0.000981516 -2.57017e-14 9.98507e-15 
2168 1 3.615 34.3425 1.8075 -0.0362919 -2.60313e-14 -1.25594e-15 
2170 1 9.0375 34.3425 0 5.4453e-15 -2.61909e-14 1.05888e-14 
2172 1 7.23 34.3425 1.8075 -2.08514e-15 -2.60521e-14 -1.30451e-15 
2174 1 12.6525 34.3425 0 5.79745e-15 -2.62325e-14 1.05888e-14 
2176 1 10.845 34.3425 1.8075 -6.24544e-15 -2.6628e-14 -1.29063e-15 
2178 1 16.2675 34.3425 0 1.27814e-14 -2.55768e-14 1.06096e-14 
2180 1 14.46 34.3425 1.8075 -1.3399e-14 -2.60174e-14 -1.05558e-15 
201 1 0 0 3.615 0.126799 6.55032e-15 8.32667e-17 
202 1 1.8075 1.8075 3.615 -0.0891745 -1.11022e-15 1.30104e-16 
203 1 1.8075 0 5.4225 -0.0891745 9.03444e-15 1.80411e-16 
204 1 0 1.8075 5.4225 0.126799 -1.13798e-15 9.88792e-17 
205 1 3.615 0 3.615 -0.0362919 9.46465e-15 7.63278e-17 
206 1 5.4225 1.8075 3.615 -0.000981516 -1.30451e-15 2.42861e-17 
207 1 5.4225 0 5.4225 -0.000981516 9.1871e-15 2.56739e-16 
208 1 3.615 1.8075 5.4225 -0.0362919 -1.08247e-15 3.46945e-18 
209 1 7.23 0 3.615 -2.21177e-15 9.38138e-15 1.80411e-16 
210 1 9.0375 1.8075 3.615 6.69256e-15 -1.22125e-15 1.04083e-17 
211 1 9.0375 0 5.4225 6.02816e-15 9.82547e-15 2.46331e-16 
212 1 7.23 1.8075 5.4225 -2.18619e-15 -1.02696e-15 2.42861e-17 
213 1 10.845 0 3.615 -6.2424e-15 9.96425e-15 1.04083e-16 
214 1 12.6525 1.8075 3.615 7.01522e-15 -1.22125e-15 1.249e-16 
215 1 12.6525 0 5.4225 6.39419e-15 9.88098e-15 2.08167e-16 
216 1 10.845 1.8075 5.4225 -6.83004e-15 -9.15934e-16 2.08167e-17 
217 1 14.46 0 3.615 -1.27953e-14 9.93823e-15 9.88792e-17 
218 1 16.2675 1.8075 3.615 1.32359e-14 -1.34615e-15 5.55112e-17 
219 1 16.2675 0 5.4225 1.27329e-14 9.90874e-15 1.80411e-16 
220 1 14.46 1.8075 5.4225 -1.33782e-14 -1.02522e-15 -6.07153e-18 
241 1 0 3.615 3.615 0.126799 7.37257e-17 6.93889e-17 
242 1 1.8075 5.4225 3.615 -0.0891745 1.75207e-16 1.04083e-16 
243 1 1.8075 3.615 5.4225 -0.0891745 5.55112e-17 1.5439e-16 
244 1 0 5.4225 5.4225 0.126799 2.25514e-16 2.67147e-16 
245 1 3.615 3.615 3.615 -0.0362919 2.81893e-17 1.22298e-16 
246 1 5.4225 5.4225 3.615 -0.000981516 1.75207e-16 5.20417e-17 
247 1 5.4225 3.615 5.4225 -0.000981516 -1.04083e-17 1.43982e-16 
248 1 3.615 5.4225 5.4225 -0.0362919 1.89085e-16 1.17961e-16 
249 1 7.23 3.615 3.615 -2.14542e-15 6.80879e-17 1.0842e-16 
250 1 9.0375 5.4225 3.615 6.64399e-15 1.75207e-16 1.00614e-16 
251 1 9.0375 3.615 5.4225 6.6197e-15 3.46945e-18 2.02963e-16 
252 1 7.23 5.4225 5.4225 -2.14065e-15 1.23165e-16 1.50921e-16 
253 1 10.845 3.615 3.615 -6.83698e-15 3.03577e-17 4.29344e-17 
254 1 12.6525 5.4225 3.615 6.97706e-15 1.73472e-16 1.31839e-16 
255 1 12.6525 3.615 5.4225 6.99961e-15 3.46945e-17 1.42247e-16 
256 1 10.845 5.4225 5.4225 -6.85563e-15 1.76942e-16 1.76942e-16 
257 1 14.46 3.615 3.615 -1.34684e-14 8.58688e-17 1.76942e-16 
258 1 16.2675 5.4225 3.615 1.33678e-14 1.2837e-16 1.38778e-16 
259 1 16.2675 3.615 5.4225 1.33157e-14 1.38778e-16 2.28983e-16 
260 1 14.46 5.4225 5.4225 -1.33999e-14 1.61763e-16 1.70437e-16 
281 1 0 7.23 3.615 0.126799 -1.4164e-15 7.1991e-17 
282 1 1.8075 9.0375 3.615 -0.0891745 6.63705e-15 1.56125e-16 
283 1 1.8075 7.23 5.4225 -0.0891745 -2.08167e-15 1.02349e-16 
284 1 0 9.0375 5.4225 0.126799 4.49987e-15 2.56739e-16 
285 1 3.615 7.23 3.615 -0.0362919 -2.05001e-15 1.63931e-16 
286 1 5.4225 9.0375 3.615 -0.000981516 6.63011e-15 7.28584e-17 
287 1 5.4225 7.23 5.4225 -0.000981516 -2.14065e-15 5.72459e-17 
288 1 3.615 9.0375 5.4225 -0.0362919 6.67869e-15 1.66533e-16 
289 1 7.23 7.23 3.615 -2.1992e-15 -2.23042e-15 6.67869e-17 
290 1 9.0375 9.0375 3.615 6.14266e-15 6.04725e-15 1.00614e-16 
291 1 9.0375 7.23 5.4225 6.14613e-15 -2.76515e-15 1.96024e-16 
292 1 7.23 9.0375 5.4225 -2.79637e-15 6.07847e-15 1.9082e-16 
293 1 10.845 7.23 3.615 -6.2849e-15 -2.78163e-15 8.06646e-17 
294 1 12.6525 9.0375 3.615 6.32307e-15 6.10796e-15 1.59595e-16 
295 1 12.6525 7.23 5.4225 6.3595e-15 -2.78944e-15 2.22045e-16 
296 1 10.845 9.0375 5.4225 -6.25541e-15 6.05765e-15 2.11636e-16 
297 1 14.46 7.23 3.615 -1.28994e-14 -2.82847e-15 1.17094e-16 
298 1 16.2675 9.0375 3.615 1.27849e-14 5.94316e-15 1.249e-16 
299 1 16.2675 7.23 5.4225 1.27537e-14 -2.85882e-15 2.22045e-16 
300 1 14.46 9.0375 5.4225 -1.30434e-14 6.01472e-15 1.73906e-16 
321 1 0 10.845 3.615 0.126799 -4.73059e-15 1.86916e-16 
322 1 1.8075 12.6525 3.615 -0.0891745 6.87124e-15 8.67362e-17 
323 1 1.8075 10.845 5.4225 -0.0891745 -6.78624e-15 1.50921e-16 
324 1 0 12.6525 5.4225 0.126799 4.83814e-15 2.46331e-16 
325 1 3.615 10.845 3.615 -0.0362919 -6.84825e-15 1.12323e-16 
326 1 5.4225 12.6525 3.615 -0.000981516 6.94757e-15 4.85723e-17 
327 1 5.4225 10.845 5.4225 -0.000981516 -6.83828e-15 1.5786e-16 
328 1 3.615 12.6525 5.4225 -0.0362919 6.87818e-15 9.54098e-17 
329 1 7.23 10.845 3.615 -2.80114e-15 -6.29705e-15 1.07987e-16 
330 1 9.0375 12.6525 3.615 6.13572e-15 6.33521e-15 2.42861e-17 
331 1 9.0375 10.845 5.4225 6.14613e-15 -6.24154e-15 1.37043e-16 
332 1 7.23 12.6525 5.4225 -2.82413e-15 6.3196e-15 2.02963e-16 
333 1 10.845 10.845 3.615 -6.29748e-15 -6.30355e-15 4.25007e-17 
334 1 12.6525 12.6525 3.615 6.24154e-15 6.31266e-15 5.55112e-17 
335 1 12.6525 10.845 5.4225 6.29011e-15 -6.39072e-15 5.20417e-17 
336 1 10.845 12.6525 5.4225 -6.29011e-15 6.26409e-15 6.245e-17 
337 1 14.46 10.845 3.615 -1.30659e-14 -6.27189e-15 1.30104e-16 
338 1 16.2675 12.6525 3.615 1.27953e-14 6.33521e-15 1.11022e-16 
339 1 16.2675 10.845 5.4225 1.28508e-14 -6.245e-15 2.08167e-16 
340 1 14.46 12.6525 5.4225 -1.29705e-14 6.30442e-15 1.06685e-16 
361 1 0 14.46 3.615 0.126799 -9.16064e-15 9.88792e-17 
362 1 1.8075 16.2675 3.615 -0.0891745 1.33435e-14 1.34875e-16 
363 1 1.8075 14.46 5.4225 -0.0891745 -1.31943e-14 1.05818e-16 
364 1 0 16.2675 5.4225 0.126799 9.09602e-15 1.81279e-16 
365 1 3.615 14.46 3.615 -0.0362919 -1.33951e-14 1.26635e-16 
366 1 5.4225 16.2675 3.615 -0.000981516 1.34411e-14 8.89046e-17 
367 1 5.4225 14.46 5.4225 -0.000981516 -1.33192e-14 1.17961e-16 
368 1 3.615 16.2675 5.4225 -0.0362919 1.34996e-14 7.89299e-17 
369 1 7.23 14.46 3.615 -2.78597e-15 -1.27932e-14 1.21431e-17 
370 1 9.0375 16.2675 3.615 6.02296e-15 1.28166e-14 1.44416e-16 
371 1 9.0375 14.46 5.4225 6.03857e-15 -1.29133e-14 8.32667e-17 
372 1 7.23 16.2675 5.4225 -2.85709e-15 1.28816e-14 1.37477e-16 
373 1 10.845 14.46 3.615 -6.31439e-15 -1.30716e-14 5.42101e-17 
374 1 12.6525 16.2675 3.615 6.26756e-15 1.27966e-14 2.37223e-16 
375 1 12.6525 14.46 5.4225 6.30745e-15 -1.29723e-14 1.73472e-18 
376 1 10.845 16.2675 5.4225 -6.26929e-15 1.28959e-14 1.24033e-16 
377 1 14.46 14.46 3.615 -1.30382e-14 -1.30304e-14 7.11237e-17 
378 1 16.2675 16.2675 3.615 1.28127e-14 1.29376e-14 1.45717e-16 
379 1 16.2675 14.46 5.4225 1.28647e-14 -1.28925e-14 1.52656e-16 
380 1 14.46 16.2675 5.4225 -1.28543e-14 1.2912e-14 1.68702e-16 
2201 1 0 18.075 3.615 0.126799 -4.159e-16 7.28584e-17 
2203 1 1.8075 18.075 5.4225 -0.0891745 -3.13985e-16 1.04083e-16 
2205 1 3.615 18.075 3.615 -0.0362919 -3.06612e-16 7.50268e-17 
2207 1 5.4225 18.075 5.4225 -0.000981516 -4.0766e-16 1.21431e-16 
2209 1 7.23 18.075 3.615 -3.50067e-15 -5.06973e-16 1.50487e-16 
2211 1 9.0375 18.075 5.4225 6.62838e-15 -4.83988e-16 1.14492e-16 
2213 1 10.845 18.075 3.615 -6.83134e-15 -3.81205e-16 1.7911e-16 
2215 1 12.6525 18.075 5.4225 6.81052e-15 -3.76435e-16 3.1225e-17 
2217 1 14.46 18.075 3.615 -1.35378e-14 -3.19189e-16 1.07553e-16 
2219 1 16.2675 18.075 5.4225 1.33921e-14 -2.91434e-16 5.55112e-17 
2202 1 1.8075 19.8825 3.615 -0.0891745 3.41741e-16 7.80626e-17 
2241 1 0 21.69 3.615 0.126799 -9.08952e-15 7.37257e-17 
2204 1 0 19.8825 5.4225 0.126799 5.23453e-16 1.44416e-16 
2243 1 1.8075 21.69 5.4225 -0.0891745 -1.31874e-14 1.49186e-16 
2206 1 5.4225 19.8825 3.615 -0.000981516 3.79471e-16 1.24466e-16 
2245 1 3.615 21.69 3.615 -0.0362919 -1.32589e-14 1.20997e-16 
2208 1 3.615 19.8825 5.4225 -0.0362919 4.31079e-16 6.76542e-17 
2247 1 5.4225 21.69 5.4225 -0.000981516 -1.3281e-14 1.97758e-16 
2210 1 9.0375 19.8825 3.615 6.69083e-15 3.55185e-16 9.67108e-17 
2249 1 7.23 21.69 3.615 -2.90219e-15 -1.27758e-14 1.10155e-16 
2212 1 7.23 19.8825 5.4225 -3.48332e-15 4.67942e-16 1.09721e-16 
2251 1 9.0375 21.69 5.4225 5.97439e-15 -1.2778e-14 1.49186e-16 
2214 1 12.6525 19.8825 3.615 6.84175e-15 4.19369e-16 5.1608e-17 
2253 1 10.845 21.69 3.615 -6.23113e-15 -1.27472e-14 1.38344e-16 
2216 1 10.845 19.8825 5.4225 -6.84348e-15 4.13298e-16 5.50775e-17 
2255 1 12.6525 21.69 5.4225 6.245e-15 -1.27693e-14 3.46945e-17 
2218 1 16.2675 19.8825 3.615 1.34198e-14 2.77556e-16 7.63278e-17 
2257 1 14.46 21.69 3.615 -1.29688e-14 -1.28786e-14 6.245e-17 
2220 1 14.46 19.8825 5.4225 -1.34979e-14 3.09648e-16 8.67362e-18 
2259 1 16.2675 21.69 5.4225 1.28265e-14 -1.28439e-14 1.80411e-16 
2242 1 1.8075 23.4975 3.615 -0.0891745 1.32832e-14 1.25334e-16 
2281 1 0 25.305 3.615 0.126799 -4.50594e-16 7.28584e-17 
2244 1 0 23.4975 5.4225 0.126799 9.09602e-15 2.90566e-16 
2283 1 1.8075 25.305 5.4225 -0.0891745 -3.41741e-16 1.04083e-16 
2246 1 5.4225 23.4975 3.615 -0.000981516 1.33266e-14 1.27068e-16 
2285 1 3.615 25.305 3.615 -0.0362919 -4.21104e-16 8.89046e-17 
2248 1 3.615 23.4975 5.4225 -0.0362919 1.3291e-14 1.75641e-16 
2287 1 5.4225 25.305 5.4225 -0.000981516 -3.93782e-16 1.35308e-16 
2250 1 9.0375 23.4975 3.615 6.01949e-15 1.28686e-14 1.54824e-16 
2289 1 7.23 25.305 3.615 -3.47639e-15 -5.06973e-16 1.22732e-16 
2252 1 7.23 23.4975 5.4225 -2.90219e-15 1.27697e-14 2.44162e-16 
2291 1 9.0375 25.305 5.4225 6.60062e-15 -4.42354e-16 8.67362e-17 
2254 1 12.6525 23.4975 3.615 6.3196e-15 1.27281e-14 1.61763e-16 
2293 1 10.845 25.305 3.615 -6.82961e-15 -3.95083e-16 1.7911e-16 
2256 1 10.845 23.4975 5.4225 -6.26235e-15 1.28122e-14 1.34007e-16 
2295 1 12.6525 25.305 5.4225 6.72726e-15 -4.31946e-16 1.73472e-17 
2258 1 16.2675 23.4975 3.615 1.27814e-14 1.27953e-14 5.55112e-17 
2297 1 14.46 25.305 3.615 -1.36835e-14 -4.84855e-16 5.55112e-17 
2260 1 14.46 23.4975 5.4225 -1.29844e-14 1.28248e-14 9.80119e-17 
2299 1 16.2675 25.305 5.4225 1.33955e-14 -3.1572e-16 1.17961e-16 
2282 1 1.8075 27.1125 3.615 -0.0891745 2.29417e-16 7.67615e-17 
2321 1 0 28.92 3.615 0.126799 -8.57387e-15 6.46184e-17 
2284 1 0 27.1125 5.4225 0.126799 3.89879e-16 1.95156e-16 
2323 1 1.8075 28.92 5.4225 -0.0891745 -1.29115e-14 1.249e-16 
2286 1 5.4225 27.1125 3.615 -0.000981516 2.70617e-16 1.25767e-17 
2325 1 3.615 28.92 3.615 -0.0362919 -1.28994e-14 1.98192e-16 
2288 1 3.615 27.1125 5.4225 -0.0362919 3.46077e-16 1.00614e-16 
2327 1 5.4225 28.92 5.4225 -0.000981516 -1.28439e-14 1.97758e-16 
2290 1 9.0375 27.1125 3.615 6.64746e-15 3.01842e-16 1.23599e-16 
2329 1 7.23 28.92 3.615 -2.88311e-15 -1.22146e-14 1.59595e-16 
2292 1 7.23 27.1125 5.4225 -3.51108e-15 3.69496e-16 1.57426e-16 
2331 1 9.0375 28.92 5.4225 5.94316e-15 -1.21014e-14 1.49186e-16 
2294 1 12.6525 27.1125 3.615 6.77063e-15 3.07046e-16 5.07407e-17 
2333 1 10.845 28.92 3.615 -6.20511e-15 -1.22072e-14 1.60028e-16 
2296 1 10.845 27.1125 5.4225 -6.84175e-15 2.6975e-16 1.04083e-16 
2335 1 12.6525 28.92 5.4225 6.23113e-15 -1.22107e-14 9.71445e-17 
2298 1 16.2675 27.1125 3.615 1.34476e-14 2.77556e-16 7.63278e-17 
2337 1 14.46 28.92 3.615 -1.28578e-14 -1.21704e-14 2.77556e-17 
2300 1 14.46 27.1125 5.4225 -1.35829e-14 3.38271e-16 1.1189e-16 
2339 1 16.2675 28.92 5.4225 1.28439e-14 -1.21639e-14 2.28983e-16 
2322 1 1.8075 30.7275 3.615 -0.0891745 -5.36463e-16 7.89299e-17 
2361 1 0 32.535 3.615 0.126799 1.80342e-14 8.67362e-17 
2324 1 0 30.7275 5.4225 0.126799 -6.30138e-16 1.69569e-16 
2363 1 1.8075 32.535 5.4225 -0.0891745 2.63934e-14 1.55258e-16 
2326 1 5.4225 30.7275 3.615 -0.000981516 -6.39246e-16 1.0842e-16 
2365 1 3.615 32.535 3.615 -0.0362919 2.65066e-14 5.55112e-17 
2328 1 3.615 30.7275 5.4225 -0.0362919 -6.05418e-16 1.62197e-16 
2367 1 5.4225 32.535 5.4225 -0.000981516 2.6468e-14 2.58907e-16 
2330 1 9.0375 30.7275 3.615 5.40193e-15 -3.66894e-16 2.02095e-16 
2369 1 7.23 32.535 3.615 -2.08514e-15 2.65274e-14 3.81639e-17 
2332 1 7.23 30.7275 5.4225 -2.29677e-15 -5.22152e-16 1.69136e-16 
2371 1 9.0375 32.535 5.4225 6.04551e-15 2.7207e-14 2.29417e-16 
2334 1 12.6525 30.7275 3.615 5.69857e-15 -4.51895e-16 7.37257e-17 
2373 1 10.845 32.535 3.615 -6.30919e-15 2.71519e-14 1.73472e-17 
2336 1 10.845 30.7275 5.4225 -5.67428e-15 -4.38451e-16 1.69569e-16 
2375 1 12.6525 32.535 5.4225 6.4046e-15 2.71792e-14 1.66967e-16 
2338 1 16.2675 30.7275 3.615 1.21431e-14 -4.02456e-16 6.93889e-17 
2377 1 14.46 32.535 3.615 -1.33851e-14 2.65235e-14 3.81639e-17 
2340 1 14.46 30.7275 5.4225 -1.22333e-14 -3.57353e-16 2.17708e-16 
2379 1 16.2675 32.535 5.4225 1.33817e-14 2.66627e-14 1.8735e-16 
2362 1 1.8075 34.3425 3.615 -0.0891745 -2.59688e-14 2.28983e-16 
2364 1 0 34.3425 5.4225 0.126799 -1.75641e-14 2.74086e-16 
2366 1 5.4225 34.3425 3.615 -0.000981516 -2.61319e-14 2.15106e-16 
2368 1 3.615 34.3425 5.4225 -0.0362919 -2.59411e-14 2.56739e-16 
2370 1 9.0375 34.3425 3.615 6.075e-15 -2.68466e-14 1.97758e-16 
2372 1 7.23 34.3425 5.4225 -2.05044e-15 -2.59306e-14 3.40006e-16 
2374 1 12.6525 34.3425 3.615 6.3248e-15 -2.68188e-14 2.56739e-16 
2376 1 10.845 34.3425 5.4225 -6.28837e-15 -2.65621e-14 2.22045e-16 
2378 1 16.2675 34.3425 3.615 1.33504e-14 -2.6229e-14 2.56739e-16 
2380 1 14.46 34.3425 5.4225 -1.33036e-14 -2.58526e-14 2.35922e-16 
401 1 0 0 7.23 0.126799 6.60583e-15 -1.4086e-15 
402 1 1.8075 1.8075 7.23 -0.0891745 -1.13798e-15 -2.12157e-15 
403 1 1.8075 0 9.0375 -0.0891745 9.71445e-15 5.96051e-15 
404 1 0 1.8075 9.0375 0.126799 -1.11022e-15 4.30732e-15 
405 1 3.615 0 7.23 -0.0362919 9.29812e-15 -2.158e-15 
406 1 5.4225 1.8075 7.23 -0.000981516 -1.33227e-15 -2.17881e-15 
407 1 5.4225 0 9.0375 -0.000981516 9.96425e-15 5.9848e-15 
408 1 3.615 1.8075 9.0375 -0.0362919 -9.99201e-16 6.48093e-15 
409 1 7.23 0 7.23 -2.20136e-15 9.27036e-15 -2.1233e-15 
410 1 9.0375 1.8075 7.23 6.11143e-15 -1.16573e-15 -2.85882e-15 
411 1 9.0375 0 9.0375 5.43315e-15 1.03251e-14 5.42622e-15 
412 1 7.23 1.8075 9.0375 -2.76862e-15 -9.99201e-16 5.96398e-15 
413 1 10.845 0 7.23 -5.72285e-15 9.85323e-15 -2.75474e-15 
414 1 12.6525 1.8075 7.23 6.32133e-15 -1.13798e-15 -2.88138e-15 
415 1 12.6525 0 9.0375 5.7853e-15 1.04083e-14 5.4505e-15 
416 1 10.845 1.8075 9.0375 -6.26712e-15 -8.88178e-16 5.92582e-15 
417 1 14.46 0 7.23 -1.2268e-14 9.83762e-15 -2.8727e-15 
418 1 16.2675 1.8075 7.23 1.27572e-14 -1.23512e-15 -2.95597e-15 
419 1 16.2675 0 9.0375 1.22125e-14 1.02834e-14 5.41234e-15 
420 1 14.46 1.8075 9.0375 -1.30954e-14 -9.41955e-16 5.86467e-15 
441 1 0 3.615 7.23 0.126799 7.54605e-17 -1.45717e-15 
442 1 1.8075 5.4225 7.23 -0.0891745 1.5786e-16 -2.11636e-15 
443 1 1.8075 3.615 9.0375 -0.0891745 6.59195e-17 6.6093e-15 
444 1 0 5.4225 9.0375 0.126799 2.8276e-16 4.47038e-15 
445 1 3.615 3.615 7.23 -0.0362919 9.75782e-17 -2.07039e-15 
446 1 5.4225 5.4225 7.23 -0.000981516 2.2031e-16 -2.19616e-15 
447 1 5.4225 3.615 9.0375 -0.000981516 -1.73472e-17 6.63358e-15 
448 1 3.615 5.4225 9.0375 -0.0362919 9.54098e-17 6.71685e-15 
449 1 7.23 3.615 7.23 -2.16233e-15 5.59448e-17 -2.13935e-15 
450 1 9.0375 5.4225 7.23 6.14439e-15 1.33574e-16 -2.81372e-15 
451 1 9.0375 3.615 9.0375 6.10276e-15 -2.42861e-17 6.08541e-15 
452 1 7.23 5.4225 9.0375 -2.75474e-15 1.64799e-16 6.1201e-15 
453 1 10.845 3.615 7.23 -6.28273e-15 1.64799e-17 -2.76038e-15 
454 1 12.6525 5.4225 7.23 6.34909e-15 2.08167e-16 -2.83801e-15 
455 1 12.6525 3.615 9.0375 6.35603e-15 1.73472e-17 6.07847e-15 
456 1 10.845 5.4225 9.0375 -6.29011e-15 5.55112e-17 6.11837e-15 
457 1 14.46 3.615 7.23 -1.29341e-14 1.34441e-16 -2.85796e-15 
458 1 16.2675 5.4225 7.23 1.27988e-14 2.11636e-16 -2.85189e-15 
459 1 16.2675 3.615 9.0375 1.28855e-14 1.11022e-16 5.9952e-15 
460 1 14.46 5.4225 9.0375 -1.29601e-14 1.65232e-16 5.97829e-15 
481 1 0 7.23 7.23 0.126799 -1.52569e-15 -1.53783e-15 
482 1 1.8075 9.0375 7.23 -0.0891745 6.08194e-15 -2.73392e-15 
483 1 1.8075 7.23 9.0375 -0.0891745 -2.68188e-15 6.09582e-15 
484 1 0 9.0375 9.0375 0.126799 4.0714e-15 4.08701e-15 
485 1 3.615 7.23 7.23 -0.0362919 -2.10726e-15 -2.17144e-15 
486 1 5.4225 9.0375 7.23 -0.000981516 6.17215e-15 -2.73045e-15 
487 1 5.4225 7.23 9.0375 -0.000981516 -2.74433e-15 6.11317e-15 
488 1 3.615 9.0375 9.0375 -0.0362919 6.16174e-15 6.09235e-15 
489 1 7.23 7.23 7.23 -2.20093e-15 -2.24603e-15 -2.15366e-15 
490 1 9.0375 9.0375 7.23 5.60142e-15 5.47826e-15 -3.34108e-15 
491 1 9.0375 7.23 9.0375 5.58754e-15 -3.35496e-15 5.52336e-15 
492 1 7.23 9.0375 9.0375 -3.38965e-15 5.6205e-15 5.4956e-15 
493 1 10.845 7.23 7.23 -5.76275e-15 -2.74347e-15 -2.77816e-15 
494 1 12.6525 9.0375 7.23 5.78704e-15 5.49734e-15 -3.42087e-15 
495 1 12.6525 7.23 9.0375 5.78877e-15 -3.35149e-15 5.51122e-15 
496 1 10.845 9.0375 9.0375 -5.75581e-15 5.53724e-15 5.56499e-15 
497 1 14.46 7.23 7.23 -1.2372e-14 -2.80678e-15 -2.88918e-15 
498 1 16.2675 9.0375 7.23 1.22159e-14 5.44703e-15 -3.34455e-15 
499 1 16.2675 7.23 9.0375 1.22333e-14 -3.42781e-15 5.50948e-15 
500 1 14.46 9.0375 9.0375 -1.23452e-14 5.45267e-15 5.50992e-15 
521 1 0 10.845 7.23 0.126799 -4.18545e-15 -2.11289e-15 
522 1 1.8075 12.6525 7.23 -0.0891745 6.12184e-15 -2.71658e-15 
523 1 1.8075 10.845 9.0375 -0.0891745 -6.20337e-15 6.06459e-15 
524 1 0 12.6525 9.0375 0.126799 4.33334e-15 4.09221e-15 
525 1 3.615 10.845 7.23 -0.0362919 -6.25324e-15 -2.66714e-15 
526 1 5.4225 12.6525 7.23 -0.000981516 6.32133e-15 -2.75127e-15 
527 1 5.4225 10.845 9.0375 -0.000981516 -6.24847e-15 6.075e-15 
528 1 3.615 12.6525 9.0375 -0.0362919 6.24847e-15 6.20337e-15 
529 1 7.23 10.845 7.23 -2.88485e-15 -5.79745e-15 -2.72265e-15 
530 1 9.0375 12.6525 7.23 5.55458e-15 5.76622e-15 -3.38965e-15 
531 1 9.0375 10.845 9.0375 5.60316e-15 -5.8252e-15 5.51989e-15 
532 1 7.23 12.6525 9.0375 -3.44169e-15 5.75234e-15 5.56152e-15 
533 1 10.845 10.845 7.23 -5.76145e-15 -5.8664e-15 -3.40266e-15 
534 1 12.6525 12.6525 7.23 5.72459e-15 5.65346e-15 -3.33067e-15 
535 1 12.6525 10.845 9.0375 5.83561e-15 -5.89112e-15 5.68816e-15 
536 1 10.845 12.6525 9.0375 -5.76275e-15 5.72285e-15 5.54765e-15 
537 1 14.46 10.845 7.23 -1.23859e-14 -5.77229e-15 -3.41394e-15 
538 1 16.2675 12.6525 7.23 1.22402e-14 5.72806e-15 -3.44169e-15 