ITEM: TIMESTEP
1
ITEM: NUMBER OF ATOMS
4000
ITEM: BOX BOUNDS pp pp pp
0.0000000000000000e+00 3.6149999999999999e+01
0.0000000000000000e+00 3.6149999999999999e+01
0.0000000000000000e+00 3.6149999999999999e+01
ITEM: ATOMS id type x y z fx fy fz 
1 1 7.23792e-16 7.20561e-16 7.21638e-16 7.18869e-15 7.18176e-15 6.93889e-15 
2 1 1.8075 1.8075 7.13022e-16 1.36002e-15 1.14405e-15 6.9441e-15 
3 1 1.8075 7.2285e-16 1.8075 1.38778e-15 6.55118e-15 1.46411e-15 
4 1 7.1733e-16 1.8075 1.8075 6.05072e-15 1.90126e-15 1.54737e-15 
5 1 3.615 7.25946e-16 7.19484e-16 -1.2013e-16 7.10543e-15 6.98053e-15 
6 1 5.4225 1.8075 7.11406e-16 1.82146e-16 1.44329e-15 6.99441e-15 
7 1 5.4225 7.21638e-16 1.8075 1.82146e-16 6.60583e-15 1.7486e-15 
8 1 3.615 1.8075 1.8075 -1.71304e-16 1.55431e-15 1.06859e-15 
9 1 7.23 7.32409e-16 7.28639e-16 -2.2443e-15 7.13318e-15 6.96665e-15 
10 1 9.0375 1.8075 7.69029e-16 4.93182e-15 1.72085e-15 7.09849e-15 
11 1 9.0375 7.66875e-16 1.8075 4.94223e-15 6.60583e-15 2.38698e-15 
12 1 7.23 1.8075 1.8075 -2.18879e-15 1.47105e-15 1.03043e-15 
13 1 10.845 7.73338e-16 7.74415e-16 -4.12864e-15 7.10543e-15 6.93196e-15 
14 1 12.6525 1.8075 7.73338e-16 1.59595e-16 1.11022e-15 6.87297e-15 
15 1 12.6525 7.73338e-16 1.8075 2.02963e-16 6.46705e-15 1.61676e-15 
16 1 10.845 1.8075 1.8075 -5.5316e-15 2.08167e-15 1.61329e-15 
17 1 14.46 7.75492e-16 7.73607e-16 -4.02456e-16 7.12798e-15 7.00221e-15 
18 1 16.2675 1.8075 7.64183e-16 4.66641e-15 1.62717e-15 7.04298e-15 
19 1 16.2675 7.6149e-16 1.8075 4.67681e-15 6.60583e-15 2.21351e-15 
20 1 14.46 1.8075 1.8075 -1.71738e-16 1.40339e-15 9.77083e-16 
41 1 7.28101e-16 3.615 7.0979e-16 7.10543e-15 -1.42247e-16 6.96665e-15 
43 1 1.8075 3.615 1.8075 1.63758e-15 -2.09468e-16 1.06859e-15 
42 1 1.8075 5.4225 7.03328e-16 1.44329e-15 9.02056e-17 6.81399e-15 
44 1 7.18407e-16 5.4225 1.8075 6.00908e-15 7.77156e-16 1.69309e-15 
45 1 3.615 3.615 7.04405e-16 -7.54605e-17 -2.09034e-16 7.07767e-15 
47 1 5.4225 3.615 1.8075 2.23779e-16 -1.54824e-16 1.08247e-15 
46 1 5.4225 5.4225 7.10867e-16 2.5327e-16 1.82146e-16 7.04992e-15 
48 1 3.615 5.4225 1.8075 -1.37043e-16 2.13805e-16 1.22125e-15 
49 1 7.23 3.615 7.23792e-16 -2.30545e-15 -1.96891e-16 7.10543e-15 
51 1 9.0375 3.615 1.8075 6.05765e-15 -1.82146e-16 1.88738e-15 
50 1 9.0375 5.4225 7.69029e-16 5.41754e-15 1.97758e-16 7.18869e-15 
52 1 7.23 5.4225 1.8075 -2.27075e-15 2.34621e-16 1.249e-15 
53 1 10.845 3.615 7.66875e-16 -5.44096e-15 -2.1684e-16 7.16094e-15 
55 1 12.6525 3.615 1.8075 1.31839e-16 -1.85615e-16 1.22125e-15 
54 1 12.6525 5.4225 7.71183e-16 1.61329e-16 3.03577e-16 6.99441e-15 
56 1 10.845 5.4225 1.8075 -6.13919e-15 2.29417e-16 1.83187e-15 
57 1 14.46 3.615 7.67279e-16 -1.11022e-16 -1.04083e-16 7.00134e-15 
59 1 16.2675 3.615 1.8075 6.03684e-15 -8.32667e-17 1.76942e-15 
58 1 16.2675 5.4225 7.48565e-16 5.36376e-15 2.77556e-16 7.17482e-15 
60 1 14.46 5.4225 1.8075 -3.38271e-17 3.4521e-16 1.20823e-15 
81 1 7.32409e-16 7.23 7.22715e-16 7.13318e-15 -2.25514e-15 6.94583e-15 
83 1 1.8075 7.23 1.8075 1.55431e-15 -2.2096e-15 1.19696e-15 
82 1 1.8075 9.0375 7.6526e-16 1.91513e-15 4.81039e-15 6.99787e-15 
84 1 7.72261e-16 9.0375 1.8075 5.50948e-15 6.06459e-15 2.38698e-15 
85 1 3.615 7.23 7.19484e-16 -1.5439e-16 -2.15192e-15 7.10543e-15 
87 1 5.4225 7.23 1.8075 2.75821e-16 -2.23996e-15 1.22125e-15 
86 1 5.4225 9.0375 7.69029e-16 3.1225e-16 5.39326e-15 7.24421e-15 
88 1 3.615 9.0375 1.8075 -9.88792e-17 6.05288e-15 1.7486e-15 
89 1 7.23 7.23 7.19484e-16 -2.30198e-15 -2.16233e-15 7.02216e-15 
91 1 9.0375 7.23 1.8075 5.43836e-15 -2.78813e-15 1.83187e-15 
90 1 9.0375 9.0375 8.0565e-16 4.75488e-15 4.81212e-15 7.02216e-15 
92 1 7.23 9.0375 1.8075 -2.84842e-15 5.49604e-15 1.80411e-15 
93 1 10.845 7.23 7.60413e-16 -4.78697e-15 -2.68969e-15 7.07767e-15 
95 1 12.6525 7.23 1.8075 2.1684e-16 -2.158e-15 1.249e-15 
94 1 12.6525 9.0375 8.03496e-16 4.19803e-16 4.19803e-15 6.96665e-15 
96 1 10.845 9.0375 1.8075 -5.55805e-15 5.37808e-15 2.22045e-15 
97 1 14.46 7.23 7.65663e-16 -2.63678e-16 -2.13371e-15 6.89553e-15 
99 1 16.2675 7.23 1.8075 5.35683e-15 -2.85882e-15 1.67921e-15 
98 1 16.2675 9.0375 7.98649e-16 4.60049e-15 4.73233e-15 7.05686e-15 
100 1 14.46 9.0375 1.8075 -2.04697e-16 4.76225e-15 1.59681e-15 
121 1 7.75492e-16 10.845 7.70106e-16 7.21645e-15 -4.27783e-15 6.87644e-15 
123 1 1.8075 10.845 1.8075 2.05391e-15 -5.60576e-15 1.64105e-15 
122 1 1.8075 12.6525 7.69703e-16 1.19349e-15 2.22045e-16 6.87297e-15 
124 1 7.72261e-16 12.6525 1.8075 5.88418e-15 8.74301e-16 1.79023e-15 
125 1 3.615 10.845 7.64721e-16 -1.30972e-16 -5.59448e-15 7.24421e-15 
127 1 5.4225 10.845 1.8075 2.55004e-16 -6.26452e-15 1.80411e-15 
126 1 5.4225 12.6525 7.71183e-16 2.39392e-16 1.96024e-16 7.02216e-15 
128 1 3.615 12.6525 1.8075 -2.09902e-16 2.29851e-16 1.27676e-15 
129 1 7.23 10.845 7.62567e-16 -2.83454e-15 -4.92488e-15 7.10543e-15 
131 1 9.0375 10.845 1.8075 5.42968e-15 -5.64002e-15 2.33147e-15 
130 1 9.0375 12.6525 8.12112e-16 4.26915e-15 4.45824e-16 6.93889e-15 
132 1 7.23 12.6525 1.8075 -2.2482e-15 2.02095e-16 1.27676e-15 
133 1 10.845 10.845 8.03496e-16 -4.71064e-15 -4.79131e-15 6.99441e-15 
135 1 12.6525 10.845 1.8075 2.55004e-16 -5.08231e-15 1.69309e-15 
134 1 12.6525 12.6525 8.03496e-16 4.42354e-16 4.19803e-16 6.7446e-15 
136 1 10.845 12.6525 1.8075 -5.02029e-15 2.85362e-16 1.66533e-15 
137 1 14.46 10.845 8.11574e-16 -2.98372e-16 -4.25094e-15 6.87124e-15 
139 1 16.2675 10.845 1.8075 5.32907e-15 -5.55112e-15 2.25514e-15 
138 1 16.2675 12.6525 7.97033e-16 4.05578e-15 4.51028e-16 6.9042e-15 
140 1 14.46 12.6525 1.8075 -1.65666e-16 3.01408e-16 1.043e-15 
161 1 7.798e-16 14.46 7.63105e-16 7.21645e-15 -3.01842e-16 6.77236e-15 
163 1 1.8075 14.46 1.8075 1.47105e-15 -1.17528e-16 1.18308e-15 
162 1 1.8075 16.2675 7.56778e-16 1.85962e-15 4.4886e-15 7.02563e-15 
164 1 7.71183e-16 16.2675 1.8075 5.45397e-15 5.95357e-15 2.31065e-15 
165 1 3.615 14.46 7.66875e-16 -1.7087e-16 -1.17094e-17 7.07767e-15 
167 1 5.4225 14.46 1.8075 3.40006e-16 1.51788e-17 1.16573e-15 
166 1 5.4225 16.2675 7.64721e-16 2.75821e-16 5.24103e-15 7.18869e-15 
168 1 3.615 16.2675 1.8075 -1.02349e-16 6.04031e-15 1.7486e-15 
169 1 7.23 14.46 7.66875e-16 -2.23953e-15 -6.59195e-17 6.88338e-15 
171 1 9.0375 14.46 1.8075 4.82253e-15 -1.54824e-16 1.66533e-15 
170 1 9.0375 16.2675 7.99187e-16 4.73406e-15 4.60266e-15 7.10543e-15 
172 1 7.23 16.2675 1.8075 -2.85709e-15 5.40323e-15 1.66533e-15 
173 1 10.845 14.46 8.09958e-16 -4.2041e-15 -2.498e-16 6.99441e-15 
175 1 12.6525 14.46 1.8075 2.96638e-16 -1.48753e-16 9.99201e-16 
174 1 12.6525 16.2675 8.01341e-16 4.21538e-16 4.00678e-15 6.91114e-15 
176 1 10.845 16.2675 1.8075 -5.61183e-15 5.372e-15 2.16493e-15 
177 1 14.46 14.46 8.16017e-16 -3.53884e-16 -2.7929e-16 6.89379e-15 
179 1 16.2675 14.46 1.8075 4.73926e-15 -2.08167e-16 1.41553e-15 
178 1 16.2675 16.2675 8.08342e-16 4.57273e-15 4.65253e-15 7.09155e-15 
180 1 14.46 16.2675 1.8075 -2.5327e-16 4.81733e-15 1.5413e-15 
2001 1 8.25037e-16 18.075 8.13728e-16 6.09235e-15 9.57567e-16 7.11237e-15 
2003 1 1.8075 18.075 1.8075 2.73392e-15 -3.83374e-16 2.30198e-15 
2005 1 3.615 18.075 8.16421e-16 -7.80626e-17 -2.41127e-16 7.21645e-15 
2007 1 5.4225 18.075 1.8075 1.5439e-16 -2.15106e-16 2.27596e-15 
2009 1 7.23 18.075 8.12112e-16 -3.51802e-15 -3.16153e-16 7.27196e-15 
2011 1 9.0375 18.075 1.8075 6.03337e-15 -3.97252e-16 2.88658e-15 
2013 1 10.845 18.075 8.55195e-16 -5.29611e-15 -3.57353e-16 7.13318e-15 
2015 1 12.6525 18.075 1.8075 2.81025e-16 -2.96638e-16 2.30371e-15 
2017 1 14.46 18.075 8.58157e-16 -3.26128e-16 -2.86229e-16 7.10716e-15 
2019 1 16.2675 18.075 1.8075 5.84949e-15 -1.94289e-16 2.91434e-15 
2002 1 1.8075 19.8825 8.19113e-16 2.30371e-15 3.4521e-16 7.21298e-15 
2004 1 8.25037e-16 19.8825 1.8075 6.63358e-15 2.67147e-16 2.94903e-15 
2041 1 7.75492e-16 21.69 7.76569e-16 6.71685e-15 -1.02696e-14 6.98053e-15 
2043 1 1.8075 21.69 1.8075 1.9984e-15 -1.22333e-14 1.66794e-15 
2006 1 5.4225 19.8825 8.20729e-16 2.56739e-16 2.43729e-16 7.32747e-15 
2008 1 3.615 19.8825 1.8075 -5.68122e-17 3.56919e-16 2.33147e-15 
2045 1 3.615 21.69 7.69029e-16 -1.45717e-16 -1.20641e-14 7.10543e-15 
2047 1 5.4225 21.69 1.8075 1.63064e-16 -1.27363e-14 1.91513e-15 
2010 1 9.0375 19.8825 8.55195e-16 5.33427e-15 3.48679e-16 7.13318e-15 
2012 1 7.23 19.8825 1.8075 -3.53537e-15 2.89265e-16 2.47025e-15 
2049 1 7.23 21.69 7.58259e-16 -2.94036e-15 -1.14284e-14 7.24421e-15 
2051 1 9.0375 21.69 1.8075 5.3655e-15 -1.21899e-14 2.47025e-15 
2014 1 12.6525 19.8825 8.57349e-16 4.04191e-16 3.48679e-16 7.16094e-15 
2016 1 10.845 19.8825 1.8075 -6.07847e-15 2.61943e-16 2.96985e-15 
2053 1 10.845 21.69 8.09958e-16 -4.68549e-15 -1.13893e-14 7.10543e-15 
2055 1 12.6525 21.69 1.8075 3.4521e-16 -1.15411e-14 1.7486e-15 
2018 1 16.2675 19.8825 8.52502e-16 5.13478e-15 2.91434e-16 7.13318e-15 
2020 1 14.46 19.8825 1.8075 -1.21431e-16 3.13118e-16 2.36963e-15 
2057 1 14.46 21.69 8.14536e-16 -3.53884e-16 -1.09266e-14 7.19563e-15 
2059 1 16.2675 21.69 1.8075 5.2354e-15 -1.22818e-14 2.34535e-15 
2042 1 1.8075 23.4975 7.71453e-16 1.88738e-15 1.15103e-14 7.10196e-15 
2044 1 7.66875e-16 23.4975 1.8075 6.60583e-15 1.16018e-14 2.30371e-15 
2081 1 8.20729e-16 25.305 8.2019e-16 6.10623e-15 6.245e-16 7.14012e-15 
2083 1 1.8075 25.305 1.8075 2.65066e-15 -5.21284e-16 2.33147e-15 
2046 1 5.4225 23.4975 7.69029e-16 2.15106e-16 1.2202e-14 7.18869e-15 
2048 1 3.615 23.4975 1.8075 -3.1225e-17 1.27897e-14 1.80411e-15 
2085 1 3.615 25.305 8.29345e-16 -1.23165e-16 -4.77049e-16 7.38298e-15 
2087 1 5.4225 25.305 1.8075 1.40513e-16 -4.33681e-16 2.33147e-15 
2050 1 9.0375 23.4975 8.01341e-16 4.77222e-15 1.16122e-14 7.16094e-15 
2052 1 7.23 23.4975 1.8075 -3.01668e-15 1.21951e-14 1.72085e-15 
2089 1 7.23 25.305 8.18575e-16 -3.43649e-15 -4.93095e-16 7.46625e-15 
2091 1 9.0375 25.305 1.8075 6.08714e-15 -4.7358e-16 2.88658e-15 
2054 1 12.6525 23.4975 8.01341e-16 3.92048e-16 1.09314e-14 7.13318e-15 
2056 1 10.845 23.4975 1.8075 -5.39629e-15 1.22853e-14 2.30371e-15 
2093 1 10.845 25.305 8.63812e-16 -5.33427e-15 -5.06539e-16 7.18869e-15 
2095 1 12.6525 25.305 1.8075 1.97758e-16 -4.80518e-16 2.33147e-15 
2058 1 16.2675 23.4975 8.06727e-16 4.55191e-15 1.15602e-14 7.23033e-15 
2060 1 14.46 23.4975 1.8075 -2.44596e-16 1.15533e-14 1.70523e-15 
2097 1 14.46 25.305 8.56541e-16 -3.19189e-16 -4.88325e-16 7.24767e-15 
2099 1 16.2675 25.305 1.8075 5.96398e-15 -4.19803e-16 2.83801e-15 
2082 1 1.8075 27.1125 8.21267e-16 2.30371e-15 2.50668e-16 7.26849e-15 
2084 1 8.25037e-16 27.1125 1.8075 6.68909e-15 2.67147e-16 2.86576e-15 
2121 1 7.73338e-16 28.92 7.68491e-16 6.77236e-15 -9.8116e-15 7.00828e-15 
2123 1 1.8075 28.92 1.8075 2.02616e-15 -1.16834e-14 1.77896e-15 
2086 1 5.4225 27.1125 8.25037e-16 2.56739e-16 2.15106e-16 7.38298e-15 
2088 1 3.615 27.1125 1.8075 -2.90566e-17 3.20056e-16 2.30371e-15 
2125 1 3.615 28.92 7.71183e-16 -9.36751e-17 -1.16166e-14 7.16094e-15 
2127 1 5.4225 28.92 1.8075 1.31839e-16 -1.22662e-14 1.9984e-15 
2090 1 9.0375 27.1125 8.53041e-16 5.33774e-15 3.00107e-16 7.13318e-15 
2092 1 7.23 27.1125 1.8075 -3.53363e-15 2.25514e-16 2.38698e-15 
2129 1 7.23 28.92 7.66875e-16 -2.88485e-15 -1.09556e-14 7.32747e-15 
2131 1 9.0375 28.92 1.8075 5.39152e-15 -1.15238e-14 2.47025e-15 
2094 1 12.6525 27.1125 8.59503e-16 3.747e-16 4.52763e-16 7.18869e-15 
2096 1 10.845 27.1125 1.8075 -6.07847e-15 2.25514e-16 2.96985e-15 
2133 1 10.845 28.92 8.14266e-16 -4.69243e-15 -1.08047e-14 7.27196e-15 
2135 1 12.6525 28.92 1.8075 3.27863e-16 -1.08785e-14 1.66533e-15 
2098 1 16.2675 27.1125 8.50887e-16 5.19029e-15 3.88578e-16 7.19563e-15 
2100 1 14.46 27.1125 1.8075 -1.52656e-16 3.72966e-16 2.36963e-15 
2137 1 14.46 28.92 8.23421e-16 -3.60822e-16 -1.02804e-14 7.11237e-15 
2139 1 16.2675 28.92 1.8075 5.2458e-15 -1.16365e-14 2.20657e-15 
2122 1 1.8075 30.7275 7.11137e-16 1.22125e-15 -4.32814e-16 7.09849e-15 
2124 1 7.06559e-16 30.7275 1.8075 6.63358e-15 -4.02456e-16 1.70697e-15 
2161 1 7.58259e-16 32.535 7.71722e-16 6.70297e-15 2.64233e-14 7.71605e-15 
2163 1 1.8075 32.535 1.8075 1.42941e-15 2.65179e-14 1.20477e-15 
2126 1 5.4225 30.7275 7.04405e-16 2.44596e-16 -3.2873e-16 7.02216e-15 
2128 1 3.615 30.7275 1.8075 -1.01048e-16 -4.49293e-16 1.249e-15 
2165 1 3.615 32.535 7.70645e-16 -1.40513e-16 2.59098e-14 7.71952e-15 
2167 1 5.4225 32.535 1.8075 2.84495e-16 2.65131e-14 1.12367e-15 
2130 1 9.0375 30.7275 7.58259e-16 4.24487e-15 -4.10262e-16 7.04992e-15 
2132 1 7.23 30.7275 1.8075 -2.29851e-15 -4.15033e-16 1.249e-15 
2169 1 7.23 32.535 7.64183e-16 -2.17708e-15 2.58821e-14 7.75074e-15 
2171 1 9.0375 32.535 1.8075 5.4852e-15 2.71966e-14 1.81756e-15 
2134 1 12.6525 30.7275 7.56104e-16 5.37764e-16 -4.4062e-16 7.07767e-15 
2136 1 10.845 30.7275 1.8075 -4.74967e-15 -2.6151e-16 1.58207e-15 
2173 1 10.845 32.535 8.16959e-16 -4.70804e-15 2.65413e-14 7.98667e-15 
2175 1 12.6525 32.535 1.8075 2.65413e-16 2.6566e-14 1.12497e-15 
2138 1 16.2675 30.7275 7.63644e-16 3.76088e-15 -4.30211e-16 7.25808e-15 
2140 1 14.46 30.7275 1.8075 -3.13985e-16 -2.43729e-16 9.88792e-16 
2177 1 14.46 32.535 8.21267e-16 -3.60822e-16 2.59077e-14 7.80973e-15 
2179 1 16.2675 32.535 1.8075 5.27356e-15 2.71519e-14 1.63758e-15 
2162 1 1.8075 34.3425 7.68289e-16 1.05471e-15 -2.52819e-14 7.10109e-15 
2164 1 7.51796e-16 34.3425 1.8075 6.67522e-15 -2.51604e-14 1.72085e-15 
2166 1 5.4225 34.3425 7.68491e-16 2.87964e-16 -2.52819e-14 7.16788e-15 
2168 1 3.615 34.3425 1.8075 -1.2013e-16 -2.62255e-14 1.23512e-15 
2170 1 9.0375 34.3425 8.17498e-16 4.86243e-15 -2.58855e-14 7.30666e-15 
2172 1 7.23 34.3425 1.8075 -2.14932e-15 -2.63123e-14 1.29063e-15 
2174 1 12.6525 34.3425 8.19652e-16 2.81025e-16 -2.53027e-14 7.14706e-15 
2176 1 10.845 34.3425 1.8075 -5.38068e-15 -2.6857e-14 1.76248e-15 
2178 1 16.2675 34.3425 8.24499e-16 4.6213e-15 -2.59237e-14 7.32747e-15 
2180 1 14.46 34.3425 1.8075 -2.81025e-16 -2.63383e-14 1.13277e-15 
201 1 7.1733e-16 7.24869e-16 3.615 6.99441e-15 7.02216e-15 -2.56739e-16 
202 1 1.8075 1.8075 3.615 1.38778e-15 1.14665e-15 -3.00107e-16 
203 1 1.8075 7.2285e-16 5.4225 1.30451e-15 6.54771e-15 6.21031e-16 
204 1 7.16253e-16 1.8075 5.4225 5.93969e-15 1.92901e-15 6.52256e-16 
205 1 3.615 7.32409e-16 3.615 -1.14492e-16 7.02216e-15 -1.249e-16 
206 1 5.4225 1.8075 3.615 1.43982e-16 1.19349e-15 -1.21431e-16 
207 1 5.4225 7.08713e-16 5.4225 2.94903e-16 6.55032e-15 7.97973e-16 
208 1 3.615 1.8075 5.4225 -7.15573e-17 1.41553e-15 9.71445e-17 
209 1 7.23 7.28101e-16 3.615 -2.14629e-15 7.04992e-15 -4.16334e-17 
210 1 9.0375 1.8075 3.615 6.09235e-15 1.83187e-15 -1.8735e-16 
211 1 9.0375 7.62567e-16 5.4225 5.4054e-15 6.63358e-15 7.84095e-16 
212 1 7.23 1.8075 5.4225 -2.21047e-15 1.44329e-15 1.31839e-16 
213 1 10.845 7.73338e-16 3.615 -5.43142e-15 7.16094e-15 -1.04083e-16 
214 1 12.6525 1.8075 3.615 2.28983e-16 1.249e-15 -1.19696e-16 
215 1 12.6525 7.66875e-16 5.4225 3.7817e-16 6.57807e-15 8.18789e-16 
216 1 10.845 1.8075 5.4225 -6.04594e-15 2.10942e-15 1.04083e-16 
217 1 14.46 7.71318e-16 3.615 -2.498e-16 7.16961e-15 -6.07153e-17 
218 1 16.2675 1.8075 3.615 5.96051e-15 1.80411e-15 -1.80411e-16 
219 1 16.2675 7.64721e-16 5.4225 5.21805e-15 6.59195e-15 7.63278e-16 
220 1 14.46 1.8075 5.4225 -1.7434e-16 1.34701e-15 1.89085e-16 
241 1 7.21638e-16 3.615 3.615 7.13318e-15 -1.31839e-16 -1.04083e-16 
242 1 1.8075 5.4225 3.615 1.36002e-15 9.62772e-17 -1.92554e-16 
243 1 1.8075 3.615 5.4225 1.38778e-15 -1.56125e-16 6.93889e-17 
244 1 7.23792e-16 5.4225 5.4225 6.02296e-15 8.04912e-16 8.32667e-16 
245 1 3.615 3.615 3.615 -9.15067e-17 -1.50487e-16 -8.58688e-17 
246 1 5.4225 5.4225 3.615 2.498e-16 2.06432e-16 -8.67362e-17 
247 1 5.4225 3.615 5.4225 2.23779e-16 -9.36751e-17 9.88792e-17 
248 1 3.615 5.4225 5.4225 -1.17961e-16 2.58474e-16 1.73472e-16 
249 1 7.23 3.615 3.615 -2.10552e-15 -6.76542e-17 -7.24247e-17 
250 1 9.0375 5.4225 3.615 6.57113e-15 2.30718e-16 -6.59195e-17 
251 1 9.0375 3.615 5.4225 6.62838e-15 -1.35308e-16 1.96024e-16 
252 1 7.23 5.4225 5.4225 -2.1684e-15 2.75821e-16 1.64799e-16 
253 1 10.845 3.615 3.615 -6.67001e-15 -1.71304e-16 -4.94396e-17 
254 1 12.6525 5.4225 3.615 1.71738e-16 3.24393e-16 -9.71445e-17 
255 1 12.6525 3.615 5.4225 2.23779e-16 -2.28983e-16 2.89699e-16 
256 1 10.845 5.4225 5.4225 -6.66134e-15 1.92554e-16 1.96024e-16 
257 1 14.46 3.615 3.615 -1.249e-16 -1.5786e-16 -1.79544e-16 
258 1 16.2675 5.4225 3.615 6.58154e-15 1.76942e-16 -2.77556e-17 
259 1 16.2675 3.615 5.4225 6.58501e-15 -9.71445e-17 2.22045e-16 
260 1 14.46 5.4225 5.4225 -1.44849e-16 3.96818e-16 3.29164e-16 
281 1 7.32409e-16 7.23 3.615 7.16094e-15 -2.16493e-15 -1.17961e-16 
282 1 1.8075 9.0375 3.615 1.9984e-15 5.95704e-15 -1.8735e-16 
283 1 1.8075 7.23 5.4225 1.4988e-15 -2.20657e-15 1.31839e-16 
284 1 7.73338e-16 9.0375 5.4225 5.50948e-15 6.64746e-15 8.53484e-16 
285 1 3.615 7.23 3.615 -9.19403e-17 -2.02052e-15 -1.0018e-16 
286 1 5.4225 9.0375 3.615 2.44596e-16 6.52603e-15 -6.59195e-17 
287 1 5.4225 7.23 5.4225 2.51535e-16 -2.13024e-15 1.38778e-16 
288 1 3.615 9.0375 5.4225 -1.17961e-16 6.55032e-15 2.08167e-16 
289 1 7.23 7.23 3.615 -2.25818e-15 -2.17534e-15 -4.46691e-17 
290 1 9.0375 9.0375 3.615 5.96918e-15 5.9848e-15 -6.59195e-17 
291 1 9.0375 7.23 5.4225 6.05939e-15 -2.80331e-15 2.32453e-16 
292 1 7.23 9.0375 5.4225 -2.80331e-15 5.93622e-15 1.9082e-16 
293 1 10.845 7.23 3.615 -6.11317e-15 -2.84278e-15 -1.32706e-16 
294 1 12.6525 9.0375 3.615 2.5327e-16 5.35336e-15 -8.67362e-17 
295 1 12.6525 7.23 5.4225 2.93168e-16 -2.16493e-15 3.38271e-16 
296 1 10.845 9.0375 5.4225 -6.19643e-15 6.00041e-15 2.1684e-16 
297 1 14.46 7.23 3.615 -1.80411e-16 -2.18922e-15 -1.24033e-16 
298 1 16.2675 9.0375 3.615 5.87724e-15 6.03337e-15 1.38778e-17 
299 1 16.2675 7.23 5.4225 5.8703e-15 -2.81719e-15 2.498e-16 
300 1 14.46 9.0375 5.4225 -6.76542e-17 5.34078e-15 3.58654e-16 
321 1 7.71183e-16 10.845 3.615 7.16094e-15 -5.4054e-15 -1.52656e-16 
322 1 1.8075 12.6525 3.615 1.36002e-15 2.1684e-16 -1.80411e-16 
323 1 1.8075 10.845 5.4225 2.02616e-15 -6.11663e-15 3.81639e-17 
324 1 7.76569e-16 12.6525 5.4225 6.05072e-15 9.15934e-16 7.56339e-16 
325 1 3.615 10.845 3.615 -1.50487e-16 -6.7342e-15 -1.0842e-16 
326 1 5.4225 12.6525 3.615 2.86229e-16 2.61943e-16 -2.01228e-16 
327 1 5.4225 10.845 5.4225 1.38778e-16 -6.6995e-15 2.55004e-16 
328 1 3.615 12.6525 5.4225 -2.5327e-16 3.22659e-16 3.64292e-16 
329 1 7.23 10.845 3.615 -2.81676e-15 -6.17735e-15 -1.18829e-16 
330 1 9.0375 12.6525 3.615 5.42101e-15 2.67147e-16 -3.1225e-17 
331 1 9.0375 10.845 5.4225 6.09061e-15 -6.25888e-15 2.32453e-16 
332 1 7.23 12.6525 5.4225 -2.25167e-15 2.63678e-16 3.33067e-16 
333 1 10.845 10.845 3.615 -6.21031e-15 -6.21898e-15 -4.0766e-17 
334 1 12.6525 12.6525 3.615 2.55004e-16 2.56739e-16 -1.35308e-16 
335 1 12.6525 10.845 5.4225 2.2031e-16 -5.6101e-15 3.69496e-16 
336 1 10.845 12.6525 5.4225 -5.59622e-15 2.01228e-16 2.96638e-16 
337 1 14.46 10.845 3.615 -4.16334e-17 -5.6552e-15 -7.97973e-17 
338 1 16.2675 12.6525 3.615 5.34989e-15 1.70003e-16 5.55112e-17 
339 1 16.2675 10.845 5.4225 5.95357e-15 -6.13398e-15 1.11022e-16 
340 1 14.46 12.6525 5.4225 1.73472e-18 2.21611e-16 3.23526e-16 
361 1 7.71183e-16 14.46 3.615 7.10543e-15 -2.98372e-16 -1.249e-16 
362 1 1.8075 16.2675 3.615 1.94289e-15 5.89112e-15 -1.35308e-16 
363 1 1.8075 14.46 5.4225 1.47105e-15 -8.67362e-17 2.15106e-16 
364 1 7.66875e-16 16.2675 5.4225 5.53724e-15 6.55032e-15 8.18789e-16 
365 1 3.615 14.46 3.615 -2.06432e-16 -9.15067e-17 -1.73906e-16 
366 1 5.4225 16.2675 3.615 2.77556e-16 6.56116e-15 -6.37511e-17 
367 1 5.4225 14.46 5.4225 3.46945e-16 -7.28584e-17 3.13985e-16 
368 1 3.615 16.2675 5.4225 -1.23165e-16 6.56419e-15 1.50054e-16 
369 1 7.23 14.46 3.615 -2.22912e-15 -3.07913e-17 -1.32273e-16 
370 1 9.0375 16.2675 3.615 5.95531e-15 5.9436e-15 -9.15067e-17 
371 1 9.0375 14.46 5.4225 5.44703e-15 -1.07553e-16 3.17454e-16 
372 1 7.23 16.2675 5.4225 -2.89525e-15 6.01255e-15 1.96891e-16 
373 1 10.845 14.46 3.615 -5.59839e-15 -4.81386e-17 -6.41848e-17 
374 1 12.6525 16.2675 3.615 1.31839e-16 5.37894e-15 -4.72712e-17 
375 1 12.6525 14.46 5.4225 1.89085e-16 1.38778e-17 4.04191e-16 
376 1 10.845 16.2675 5.4225 -6.10449e-15 5.96745e-15 1.7087e-16 
377 1 14.46 14.46 3.615 -6.93889e-17 -1.00614e-16 -1.07553e-16 
378 1 16.2675 16.2675 3.615 5.8703e-15 5.88071e-15 -2.77556e-17 
379 1 16.2675 14.46 5.4225 5.29438e-15 -1.38778e-16 2.22045e-16 
380 1 14.46 16.2675 5.4225 -1.07553e-16 5.29524e-15 2.69316e-16 
2201 1 8.29345e-16 18.075 3.615 6.09235e-15 1.04083e-15 -1.11022e-16 
2203 1 1.8075 18.075 5.4225 2.73392e-15 -3.31332e-16 1.21431e-17 
2205 1 3.615 18.075 3.615 -1.21431e-17 -1.0018e-16 -2.90566e-17 
2207 1 5.4225 18.075 5.4225 1.8735e-16 -1.02349e-16 9.36751e-17 
2209 1 7.23 18.075 3.615 -3.47118e-15 -2.14672e-16 -4.29344e-17 
2211 1 9.0375 18.075 5.4225 6.58675e-15 -2.89699e-16 5.89806e-17 
2213 1 10.845 18.075 3.615 -6.75501e-15 -2.59775e-16 8.19657e-17 
2215 1 12.6525 18.075 5.4225 1.71738e-16 -3.10516e-16 1.66533e-16 
2217 1 14.46 18.075 3.615 -1.31839e-16 -2.32453e-16 -8.58688e-17 
2219 1 16.2675 18.075 5.4225 6.46705e-15 -2.498e-16 1.52656e-16 
2202 1 1.8075 19.8825 3.615 2.33147e-15 2.55872e-16 -8.2833e-17 
2241 1 7.72261e-16 21.69 3.615 6.50868e-15 -1.15602e-14 -1.66533e-16 
2204 1 8.25037e-16 19.8825 5.4225 6.63358e-15 2.42861e-16 7.77156e-16 
2243 1 1.8075 21.69 5.4225 2.1233e-15 -1.28161e-14 1.49186e-16 
2206 1 5.4225 19.8825 3.615 1.94289e-16 3.2049e-16 -1.43115e-17 
2245 1 3.615 21.69 3.615 -4.33681e-17 -1.33916e-14 1.64799e-17 
2208 1 3.615 19.8825 5.4225 -1.73472e-18 3.37404e-16 1.42247e-16 
2247 1 5.4225 21.69 5.4225 2.65413e-16 -1.33088e-14 2.39392e-16 
2210 1 9.0375 19.8825 3.615 6.52256e-15 2.85796e-16 1.52222e-16 
2249 1 7.23 21.69 3.615 -2.9473e-15 -1.2807e-14 -6.33174e-17 
2212 1 7.23 19.8825 5.4225 -3.4972e-15 4.12431e-16 1.09721e-16 
2251 1 9.0375 21.69 5.4225 5.905e-15 -1.28335e-14 2.32453e-16 
2214 1 12.6525 19.8825 3.615 2.5327e-16 3.57353e-16 1.95156e-17 
2253 1 10.845 21.69 3.615 -6.01255e-15 -1.27723e-14 8.93383e-17 
2216 1 10.845 19.8825 5.4225 -6.68736e-15 3.71665e-16 1.31405e-16 
2255 1 12.6525 21.69 5.4225 2.84495e-16 -1.21431e-14 2.18575e-16 
2218 1 16.2675 19.8825 3.615 6.45317e-15 3.747e-16 2.77556e-17 
2257 1 14.46 21.69 3.615 -1.17961e-16 -1.21643e-14 4.85723e-17 
2220 1 14.46 19.8825 5.4225 -1.35308e-16 4.12864e-16 2.46331e-16 
2259 1 16.2675 21.69 5.4225 5.79398e-15 -1.27086e-14 1.80411e-16 
2242 1 1.8075 23.4975 3.615 1.83187e-15 1.26904e-14 -1.20563e-16 
2281 1 8.25037e-16 25.305 3.615 6.1201e-15 6.93889e-16 -1.17961e-16 
2244 1 7.62567e-16 23.4975 5.4225 6.60583e-15 1.21812e-14 6.73073e-16 
2283 1 1.8075 25.305 5.4225 2.7478e-15 -5.67255e-16 6.76542e-17 
2246 1 5.4225 23.4975 3.615 2.08167e-16 1.32988e-14 -6.72205e-17 
2285 1 3.615 25.305 3.615 6.93889e-17 -4.22839e-16 1.25767e-17 
2248 1 3.615 23.4975 5.4225 -1.73472e-18 1.33782e-14 2.22912e-16 
2287 1 5.4225 25.305 5.4225 1.94289e-16 -4.21538e-16 1.76942e-16 
2250 1 9.0375 23.4975 3.615 5.9102e-15 1.28539e-14 1.51788e-17 
2289 1 7.23 25.305 3.615 -3.5319e-15 -5.20851e-16 -4.38018e-17 
2252 1 7.23 23.4975 5.4225 -2.9577e-15 1.27697e-14 2.99673e-16 
2291 1 9.0375 25.305 5.4225 6.55899e-15 -4.14599e-16 1.14492e-16 
2254 1 12.6525 23.4975 3.615 2.5327e-16 1.2163e-14 1.82146e-17 
2293 1 10.845 25.305 3.615 -6.72726e-15 -4.159e-16 1.09721e-16 
2256 1 10.845 23.4975 5.4225 -6.00561e-15 1.28079e-14 1.73039e-16 
2295 1 12.6525 25.305 5.4225 1.99493e-16 -3.66027e-16 1.38778e-16 
2258 1 16.2675 23.4975 3.615 5.8703e-15 1.26427e-14 1.04083e-16 
2297 1 14.46 25.305 3.615 -2.01228e-16 -3.40439e-16 1.04083e-17 
2260 1 14.46 23.4975 5.4225 -1.73472e-16 1.2065e-14 2.64545e-16 
2299 1 16.2675 25.305 5.4225 6.43929e-15 -3.88578e-16 1.31839e-16 
2282 1 1.8075 27.1125 3.615 2.38698e-15 2.68448e-16 -8.45678e-17 
2321 1 7.64721e-16 28.92 3.615 6.57807e-15 -1.09912e-14 -2.08167e-16 
2284 1 8.22883e-16 27.1125 5.4225 6.77236e-15 2.87964e-16 8.04912e-16 
2323 1 1.8075 28.92 5.4225 2.08167e-15 -1.22437e-14 1.73472e-16 
2286 1 5.4225 27.1125 3.615 1.38778e-16 3.26128e-16 -7.069e-17 
2325 1 3.615 28.92 3.615 -7.45931e-17 -1.29011e-14 -1.34441e-17 
2288 1 3.615 27.1125 5.4225 2.77556e-17 3.39572e-16 1.91253e-16 
2327 1 5.4225 28.92 5.4225 2.91434e-16 -1.28161e-14 2.74086e-16 
2290 1 9.0375 27.1125 3.615 6.57807e-15 3.01842e-16 1.23599e-16 
2329 1 7.23 28.92 3.615 -2.88311e-15 -1.22701e-14 -6.93889e-18 
2292 1 7.23 27.1125 5.4225 -3.51108e-15 4.25007e-16 2.12937e-16 
2331 1 9.0375 28.92 5.4225 5.88765e-15 -1.21292e-14 2.04697e-16 
2294 1 12.6525 27.1125 3.615 2.25514e-16 3.00541e-16 1.77809e-17 
2333 1 10.845 28.92 3.615 -6.05245e-15 -1.21032e-14 7.37257e-18 
2296 1 10.845 27.1125 5.4225 -6.6596e-15 3.35669e-16 1.23165e-16 
2335 1 12.6525 28.92 5.4225 2.63678e-16 -1.15099e-14 3.36536e-16 
2298 1 16.2675 27.1125 3.615 6.4948e-15 3.19189e-16 8.32667e-17 
2337 1 14.46 28.92 3.615 -1.94289e-16 -1.15836e-14 1.04083e-17 
2300 1 14.46 27.1125 5.4225 -1.5786e-16 4.08527e-16 2.46331e-16 
2339 1 16.2675 28.92 5.4225 5.71765e-15 -1.21222e-14 2.22045e-16 
2322 1 1.8075 30.7275 3.615 1.13798e-15 -4.98299e-16 -2.1207e-16 
2361 1 7.52873e-16 32.535 3.615 6.59195e-15 2.70478e-14 -2.28983e-16 
2324 1 6.97943e-16 30.7275 5.4225 6.60583e-15 -5.55112e-16 7.63278e-16 
2363 1 1.8075 32.535 5.4225 1.30451e-15 2.63973e-14 1.35308e-16 
2326 1 5.4225 30.7275 3.615 2.41127e-16 -5.42101e-16 -3.03577e-17 
2365 1 3.615 32.535 3.615 -1.11022e-16 2.64025e-14 -1.70003e-16 
2328 1 3.615 30.7275 5.4225 -7.97973e-17 -5.9501e-16 2.64545e-16 
2367 1 5.4225 32.535 5.4225 3.36536e-16 2.6422e-14 2.29417e-16 
2330 1 9.0375 30.7275 3.615 5.32907e-15 -4.22405e-16 -7.54605e-17 
2369 1 7.23 32.535 3.615 -2.15453e-15 2.64441e-14 -3.81639e-17 
2332 1 7.23 30.7275 5.4225 -2.29677e-15 -5.22152e-16 2.24647e-16 
2371 1 9.0375 32.535 5.4225 6.00908e-15 2.71614e-14 2.89699e-16 
2334 1 12.6525 30.7275 3.615 3.57353e-16 -4.98299e-16 -5.94143e-17 
2373 1 10.845 32.535 3.615 -5.97612e-15 2.70964e-14 -1.17961e-16 
2336 1 10.845 30.7275 5.4225 -5.30131e-15 -3.86843e-16 2.09034e-16 
2375 1 12.6525 32.535 5.4225 4.16334e-16 2.6615e-14 3.4521e-16 
2338 1 16.2675 30.7275 3.615 5.20417e-15 -3.60822e-16 -4.85723e-17 
2377 1 14.46 32.535 3.615 -3.1225e-16 2.64693e-14 -6.93889e-17 
2340 1 14.46 30.7275 5.4225 -3.27863e-16 -4.71845e-16 3.19189e-16 
2379 1 16.2675 32.535 5.4225 5.82173e-15 2.71692e-14 3.40006e-16 
2362 1 1.8075 34.3425 3.615 1.30451e-15 -2.58717e-14 -7.07767e-16 
2364 1 7.58259e-16 34.3425 5.4225 6.64746e-15 -2.51049e-14 9.22873e-16 
2366 1 5.4225 34.3425 3.615 2.44596e-16 -2.583e-14 -5.75928e-16 
2368 1 3.615 34.3425 5.4225 -6.76542e-17 -2.61076e-14 1.73472e-16 
2370 1 9.0375 34.3425 3.615 6.04898e-15 -2.64753e-14 -5.10009e-16 
2372 1 7.23 34.3425 5.4225 -2.11636e-15 -2.6177e-14 2.98372e-16 
2374 1 12.6525 34.3425 3.615 3.62557e-16 -2.59202e-14 -5.6205e-16 
2376 1 10.845 34.3425 5.4225 -5.9952e-15 -2.68188e-14 3.53884e-16 
2378 1 16.2675 34.3425 3.615 5.8703e-15 -2.64927e-14 -4.44089e-16 
2380 1 14.46 34.3425 5.4225 -2.63678e-16 -2.62602e-14 3.50414e-16 
401 1 7.28101e-16 7.28101e-16 7.23 6.99441e-15 7.06379e-15 -2.23432e-15 
402 1 1.8075 1.8075 7.23 1.30451e-15 1.14665e-15 -2.31412e-15 
403 1 1.8075 7.69164e-16 9.0375 1.91513e-15 5.93622e-15 5.86683e-15 
404 1 7.67952e-16 1.8075 9.0375 5.38458e-15 2.45637e-15 5.84949e-15 
405 1 3.615 7.25946e-16 7.23 -5.76796e-17 7.10543e-15 -2.158e-15 
406 1 5.4225 1.8075 7.23 2.93168e-16 1.13798e-15 -2.14412e-15 
407 1 5.4225 7.66875e-16 9.0375 3.27863e-16 5.9952e-15 6.5746e-15 
408 1 3.615 1.8075 9.0375 -8.32667e-17 1.9984e-15 5.97786e-15 
409 1 7.23 7.19484e-16 7.23 -2.21871e-15 7.04992e-15 -2.10942e-15 
410 1 9.0375 1.8075 7.23 5.4054e-15 1.77636e-15 -2.77209e-15 
411 1 9.0375 8.01341e-16 9.0375 4.79825e-15 5.93969e-15 5.95357e-15 
412 1 7.23 1.8075 9.0375 -2.76038e-15 2.02616e-15 5.31172e-15 
413 1 10.845 7.64721e-16 7.23 -4.75314e-15 6.99441e-15 -2.74086e-15 
414 1 12.6525 1.8075 7.23 1.52656e-16 1.30451e-15 -2.25341e-15 
415 1 12.6525 8.07804e-16 9.0375 3.29597e-16 5.82867e-15 5.39846e-15 
416 1 10.845 1.8075 9.0375 -5.54634e-15 2.55351e-15 5.37417e-15 
417 1 14.46 7.63375e-16 7.23 -2.28983e-16 6.87124e-15 -2.11116e-15 
418 1 16.2675 1.8075 7.23 5.36723e-15 1.71738e-15 -2.83801e-15 
419 1 16.2675 7.93802e-16 9.0375 4.55191e-15 6.02296e-15 5.93969e-15 
420 1 14.46 1.8075 9.0375 -1.49186e-16 1.87437e-15 4.72756e-15 
441 1 7.28101e-16 3.615 7.23 7.16094e-15 -1.04083e-16 -2.08861e-15 
442 1 1.8075 5.4225 7.23 1.27676e-15 1.7434e-16 -2.19443e-15 
443 1 1.8075 3.615 9.0375 1.88738e-15 -1.35308e-16 5.89806e-15 
444 1 7.73338e-16 5.4225 9.0375 5.46785e-15 7.63278e-16 6.60583e-15 
445 1 3.615 3.615 7.23 -1.21431e-16 -1.14492e-16 -2.10248e-15 
446 1 5.4225 5.4225 7.23 2.7929e-16 2.7929e-16 -2.14065e-15 
447 1 5.4225 3.615 9.0375 2.8276e-16 -1.56125e-16 6.54685e-15 
448 1 3.615 5.4225 9.0375 -1.35308e-16 2.18575e-16 6.61624e-15 
449 1 7.23 3.615 7.23 -2.18879e-15 -1.38778e-16 -2.0743e-15 
450 1 9.0375 5.4225 7.23 6.0698e-15 2.8276e-16 -2.75821e-15 
451 1 9.0375 3.615 9.0375 6.03163e-15 -1.2837e-16 6.02296e-15 
452 1 7.23 5.4225 9.0375 -2.75821e-15 2.18575e-16 6.03337e-15 
453 1 10.845 3.615 7.23 -6.08714e-15 -1.71304e-16 -2.76949e-15 
454 1 12.6525 5.4225 7.23 1.17961e-16 3.52149e-16 -2.22045e-15 
455 1 12.6525 3.615 9.0375 8.50015e-17 -1.73472e-16 5.34121e-15 
456 1 10.845 5.4225 9.0375 -6.18602e-15 1.61329e-16 6.00388e-15 
457 1 14.46 3.615 7.23 -1.8735e-16 -1.80411e-16 -2.19876e-15 
458 1 16.2675 5.4225 7.23 5.91541e-15 2.63678e-16 -2.81719e-15 
459 1 16.2675 3.615 9.0375 5.93969e-15 5.55112e-17 6.07847e-15 
460 1 14.46 5.4225 9.0375 -1.07553e-16 3.2396e-16 5.39672e-15 
481 1 7.28101e-16 7.23 7.23 7.04992e-15 -2.15106e-15 -2.10942e-15 
482 1 1.8075 9.0375 7.23 1.9984e-15 5.29177e-15 -2.84842e-15 
483 1 1.8075 7.23 9.0375 1.97065e-15 -2.73739e-15 5.33254e-15 
484 1 8.12112e-16 9.0375 9.0375 4.85723e-15 6.07847e-15 5.98827e-15 
485 1 3.615 7.23 7.23 -1.72605e-16 -2.14715e-15 -2.21307e-15 
486 1 5.4225 9.0375 7.23 1.43982e-16 5.9848e-15 -2.75821e-15 
487 1 5.4225 7.23 9.0375 2.65413e-16 -2.74433e-15 6.03337e-15 
488 1 3.615 9.0375 9.0375 -1.63064e-16 6.02296e-15 5.9952e-15 