ITEM: TIMESTEP
0
ITEM: NUMBER OF ATOMS
3999
ITEM: BOX BOUNDS pp pp pp
0.0000000000000000e+00 3.6149999999999999e+01
0.0000000000000000e+00 3.6149999999999999e+01
0.0000000000000000e+00 3.6149999999999999e+01
ITEM: ATOMS id type x y z fx fy fz 
1 1 0 0 0 -0.00367662 -0.00183908 -0.00183908 
2 1 1.8075 1.8075 0 -0.000818485 -0.000563356 -0.00025595 
3 1 1.8075 0 1.8075 -0.000818485 -0.00025595 -0.000563356 
4 1 0 1.8075 1.8075 -0.00128993 -0.00128993 -0.00128993 
5 1 3.615 0 0 -0.000107698 -2.77049e-05 -2.77049e-05 
6 1 5.4225 1.8075 0 2.30718e-16 -1.11022e-15 9.16628e-15 
7 1 5.4225 0 1.8075 1.99493e-16 9.29812e-15 -1.20737e-15 
8 1 3.615 1.8075 1.8075 -8.61071e-06 -4.30535e-06 -4.30535e-06 
9 1 7.23 0 0 -2.2933e-15 9.4369e-15 9.38832e-15 
10 1 9.0375 1.8075 0 6.0698e-15 -1.33227e-15 9.90874e-15 
11 1 9.0375 0 1.8075 6.05939e-15 9.88098e-15 -1.2837e-15 
12 1 7.23 1.8075 1.8075 -2.26772e-15 -9.99201e-16 -1.31839e-15 
13 1 10.845 0 0 -5.67298e-15 9.96425e-15 9.97813e-15 
14 1 12.6525 1.8075 0 6.28143e-15 -1.11022e-15 9.96425e-15 
15 1 12.6525 0 1.8075 6.37858e-15 9.96425e-15 -1.10328e-15 
16 1 10.845 1.8075 1.8075 -6.80836e-15 -8.88178e-16 -1.34615e-15 
17 1 14.46 0 0 -1.22888e-14 9.99201e-15 9.96772e-15 
18 1 16.2675 1.8075 0 1.2719e-14 -1.36696e-15 9.84629e-15 
19 1 16.2675 0 1.8075 1.27814e-14 9.8116e-15 -1.23512e-15 
20 1 14.46 1.8075 1.8075 -1.34337e-14 -1.08073e-15 -1.38908e-15 
41 1 0 3.615 0 -0.000563356 -0.000818485 -0.00025595 
43 1 1.8075 3.615 1.8075 -1.44966e-05 -1.44966e-05 -8.89745e-06 
42 1 1.8075 5.4225 0 -1.84765e-06 -2.08006e-06 -2.32406e-07 
44 1 0 5.4225 1.8075 -4.30535e-06 -8.61071e-06 -4.30535e-06 
45 1 3.615 3.615 0 -2.08006e-06 -1.84765e-06 -2.32406e-07 
47 1 5.4225 3.615 1.8075 2.25514e-16 2.55872e-17 -1.33227e-15 
46 1 5.4225 5.4225 0 2.23779e-16 1.61329e-16 9.15934e-15 
48 1 3.615 5.4225 1.8075 8.1532e-17 2.48933e-16 -1.30451e-15 
49 1 7.23 3.615 0 -2.30848e-15 6.59195e-17 9.32587e-15 
51 1 9.0375 3.615 1.8075 6.73593e-15 -1.73472e-18 -1.11022e-15 
50 1 9.0375 5.4225 0 6.01255e-15 2.60209e-16 9.90874e-15 
52 1 7.23 5.4225 1.8075 -2.23085e-15 2.4503e-16 -1.22125e-15 
53 1 10.845 3.615 0 -6.245e-15 1.60462e-17 9.88098e-15 
55 1 12.6525 3.615 1.8075 7.01869e-15 -1.73472e-18 -1.05471e-15 
54 1 12.6525 5.4225 0 6.31613e-15 2.27249e-16 9.9365e-15 
56 1 10.845 5.4225 1.8075 -6.85216e-15 1.36176e-16 -1.27676e-15 
57 1 14.46 3.615 0 -1.28716e-14 6.41848e-17 9.88619e-15 
59 1 16.2675 3.615 1.8075 1.33296e-14 6.93889e-17 -1.19349e-15 
58 1 16.2675 5.4225 0 1.27329e-14 1.56125e-16 9.64506e-15 
60 1 14.46 5.4225 1.8075 -1.34424e-14 1.94723e-16 -1.27502e-15 
81 1 0 7.23 0 9.4369e-15 -2.19616e-15 9.312e-15 
83 1 1.8075 7.23 1.8075 -1.02696e-15 -2.23823e-15 -1.1241e-15 
82 1 1.8075 9.0375 0 -1.13798e-15 5.99347e-15 9.86017e-15 
84 1 0 9.0375 1.8075 9.95037e-15 6.03684e-15 -1.15186e-15 
85 1 3.615 7.23 0 1.22298e-16 -2.10942e-15 9.27036e-15 
87 1 5.4225 7.23 1.8075 1.92554e-16 -2.23996e-15 -1.249e-15 
86 1 5.4225 9.0375 0 2.63678e-16 6.04898e-15 9.90874e-15 
88 1 3.615 9.0375 1.8075 3.98986e-17 6.71165e-15 -1.19349e-15 
89 1 7.23 7.23 0 -2.22565e-15 -2.15106e-15 9.27036e-15 
91 1 9.0375 7.23 1.8075 6.09582e-15 -2.77209e-15 -1.249e-15 
90 1 9.0375 9.0375 0 5.44356e-15 5.41407e-15 1.03806e-14 
92 1 7.23 9.0375 1.8075 -2.79117e-15 6.02773e-15 -1.36002e-15 
93 1 10.845 7.23 0 -5.66474e-15 -2.68839e-15 9.79772e-15 
95 1 12.6525 7.23 1.8075 6.34909e-15 -2.81025e-15 -1.249e-15 
94 1 12.6525 9.0375 0 5.78183e-15 5.44703e-15 1.03528e-14 
96 1 10.845 9.0375 1.8075 -6.27623e-15 6.1149e-15 -1.30451e-15 
97 1 14.46 7.23 0 -1.2379e-14 -2.82933e-15 9.86537e-15 
99 1 16.2675 7.23 1.8075 1.283e-14 -2.8727e-15 -1.249e-15 
98 1 16.2675 9.0375 0 1.21084e-14 5.42968e-15 1.02904e-14 
100 1 14.46 9.0375 1.8075 -1.30677e-14 5.98263e-15 -1.30278e-15 
121 1 0 10.845 0 9.99201e-15 -5.67948e-15 9.92262e-15 
123 1 1.8075 10.845 1.8075 -9.4369e-16 -6.93412e-15 -1.26288e-15 
122 1 1.8075 12.6525 0 -1.05471e-15 6.18602e-15 9.91741e-15 
124 1 0 12.6525 1.8075 9.95037e-15 6.39766e-15 -1.20737e-15 
125 1 3.615 10.845 0 8.41341e-17 -6.23807e-15 9.85323e-15 
127 1 5.4225 10.845 1.8075 1.40513e-16 -6.86473e-15 -1.249e-15 
126 1 5.4225 12.6525 0 2.1684e-16 6.26582e-15 9.9365e-15 
128 1 3.615 12.6525 1.8075 7.11237e-17 6.93673e-15 -1.19349e-15 
129 1 7.23 10.845 0 -2.90696e-15 -5.73933e-15 9.82547e-15 
131 1 9.0375 10.845 1.8075 6.15827e-15 -6.33825e-15 -1.249e-15 
130 1 9.0375 12.6525 0 5.42275e-15 5.79745e-15 1.04639e-14 
132 1 7.23 12.6525 1.8075 -2.88658e-15 6.34128e-15 -1.30451e-15 
133 1 10.845 10.845 0 -5.64999e-15 -5.75581e-15 1.03528e-14 
135 1 12.6525 10.845 1.8075 6.3248e-15 -6.29228e-15 -1.16573e-15 
134 1 12.6525 12.6525 0 5.84081e-15 5.7003e-15 1.03528e-14 
136 1 10.845 12.6525 1.8075 -6.24674e-15 6.27233e-15 -1.13798e-15 
137 1 14.46 10.845 0 -1.24067e-14 -5.64306e-15 1.04569e-14 
139 1 16.2675 10.845 1.8075 1.28231e-14 -6.23113e-15 -1.17961e-15 
138 1 16.2675 12.6525 0 1.21049e-14 5.86683e-15 1.02696e-14 
140 1 14.46 12.6525 1.8075 -1.3085e-14 6.37468e-15 -1.33053e-15 
161 1 0 14.46 0 1.00475e-14 -1.22437e-14 9.83241e-15 
163 1 1.8075 14.46 1.8075 -1.08247e-15 -1.34181e-14 -1.33574e-15 
162 1 1.8075 16.2675 0 -1.13798e-15 1.27459e-14 9.75088e-15 
164 1 0 16.2675 1.8075 9.9365e-15 1.28508e-14 -1.24206e-15 
165 1 3.615 14.46 0 8.67362e-17 -1.28209e-14 9.88098e-15 
167 1 5.4225 14.46 1.8075 2.25514e-16 -1.33955e-14 -1.19349e-15 
166 1 5.4225 16.2675 0 2.60209e-16 1.27966e-14 9.85323e-15 
168 1 3.615 16.2675 1.8075 4.51028e-17 1.34281e-14 -1.22125e-15 
169 1 7.23 14.46 0 -2.86837e-15 -1.23217e-14 9.88098e-15 
171 1 9.0375 14.46 1.8075 6.01255e-15 -1.29861e-14 -1.16573e-15 
170 1 9.0375 16.2675 0 5.35509e-15 1.21947e-14 1.02973e-14 
172 1 7.23 16.2675 1.8075 -2.85015e-15 1.28317e-14 -1.22125e-15 
173 1 10.845 14.46 0 -5.65563e-15 -1.24189e-14 1.04361e-14 
175 1 12.6525 14.46 1.8075 6.36817e-15 -1.30525e-14 -1.13798e-15 
174 1 12.6525 16.2675 0 5.88765e-15 1.22103e-14 1.03251e-14 
176 1 10.845 16.2675 1.8075 -6.25368e-15 1.2866e-14 -1.27676e-15 
177 1 14.46 14.46 0 -1.22194e-14 -1.22333e-14 1.05142e-14 
179 1 16.2675 14.46 1.8075 1.28023e-14 -1.29619e-14 -1.30451e-15 
178 1 16.2675 16.2675 0 1.19973e-14 1.21327e-14 1.04153e-14 
180 1 14.46 16.2675 1.8075 -1.29046e-14 1.28916e-14 -1.35655e-15 
2001 1 0 18.075 0 1.06304e-14 -4.57967e-16 1.04847e-14 
2003 1 1.8075 18.075 1.8075 -7.91034e-16 -4.09395e-16 -1.25594e-15 
2005 1 3.615 18.075 0 8.50015e-17 -3.87277e-16 1.05194e-14 
2007 1 5.4225 18.075 1.8075 1.56125e-16 -3.81639e-16 -1.22125e-15 
2009 1 7.23 18.075 0 -3.46598e-15 -4.17201e-16 1.04639e-14 
2011 1 9.0375 18.075 1.8075 6.61277e-15 -4.28477e-16 -1.27676e-15 
2013 1 10.845 18.075 0 -6.21898e-15 -4.70544e-16 1.1019e-14 
2015 1 12.6525 18.075 1.8075 6.86083e-15 -3.31332e-16 -1.36002e-15 
2017 1 14.46 18.075 0 -1.28578e-14 -5.20417e-16 1.10571e-14 
2019 1 16.2675 18.075 1.8075 1.34129e-14 -3.60822e-16 -1.31145e-15 
2002 1 1.8075 19.8825 0 -1.16573e-15 2.9924e-16 1.05541e-14 
2004 1 0 19.8825 1.8075 1.06304e-14 3.747e-16 -1.20737e-15 
2041 1 0 21.69 0 9.99201e-15 -1.22125e-14 1.00059e-14 
2043 1 1.8075 21.69 1.8075 -9.02056e-16 -1.34311e-14 -1.19783e-15 
2006 1 5.4225 19.8825 0 1.89085e-16 3.0401e-16 1.05749e-14 
2008 1 3.615 19.8825 1.8075 9.97466e-18 3.32633e-16 -1.16573e-15 
2045 1 3.615 21.69 0 1.21431e-17 -1.2722e-14 9.90874e-15 
2047 1 5.4225 21.69 1.8075 1.75207e-16 -1.33591e-14 -1.11022e-15 
2010 1 9.0375 19.8825 0 5.9449e-15 3.90746e-16 1.1019e-14 
2012 1 7.23 19.8825 1.8075 -3.53667e-15 3.79904e-16 -1.249e-15 
2049 1 7.23 21.69 0 -2.86229e-15 -1.21361e-14 9.76996e-15 
2051 1 9.0375 21.69 1.8075 6.00041e-15 -1.28023e-14 -1.11022e-15 
2014 1 12.6525 19.8825 0 6.37858e-15 4.06359e-16 1.10467e-14 
2016 1 10.845 19.8825 1.8075 -6.82093e-15 3.95083e-16 -1.19349e-15 
2053 1 10.845 21.69 0 -5.64306e-15 -1.21513e-14 1.04361e-14 
2055 1 12.6525 21.69 1.8075 6.3647e-15 -1.27641e-14 -1.05471e-15 
2018 1 16.2675 19.8825 0 1.27398e-14 4.71845e-16 1.09843e-14 
2020 1 14.46 19.8825 1.8075 -1.36505e-14 3.40873e-16 -1.07813e-15 
2057 1 14.46 21.69 0 -1.22818e-14 -1.20134e-14 1.04951e-14 
2059 1 16.2675 21.69 1.8075 1.28404e-14 -1.28231e-14 -1.249e-15 
2042 1 1.8075 23.4975 0 -9.99201e-16 1.27168e-14 9.93997e-15 
2044 1 0 23.4975 1.8075 9.88098e-15 1.27676e-14 -1.22818e-15 
2081 1 0 25.305 0 1.05749e-14 -4.30211e-16 1.05679e-14 
2083 1 1.8075 25.305 1.8075 -7.07767e-16 -4.3715e-16 -1.2837e-15 
2046 1 5.4225 23.4975 0 1.94289e-16 1.27463e-14 9.90874e-15 
2048 1 3.615 23.4975 1.8075 8.19657e-17 1.33253e-14 -1.249e-15 
2085 1 3.615 25.305 0 4.51028e-17 -4.15033e-16 1.06859e-14 
2087 1 5.4225 25.305 1.8075 1.26635e-16 -3.81639e-16 -1.19349e-15 
2050 1 9.0375 23.4975 0 5.39152e-15 1.21808e-14 1.03251e-14 
2052 1 7.23 23.4975 1.8075 -2.91607e-15 1.28265e-14 -1.22125e-15 
2089 1 7.23 25.305 0 -3.44516e-15 -4.17201e-16 1.05471e-14 
2091 1 9.0375 25.305 1.8075 6.62491e-15 -4.45824e-16 -1.30451e-15 
2054 1 12.6525 23.4975 0 5.87724e-15 1.20993e-14 1.03251e-14 
2056 1 10.845 23.4975 1.8075 -6.19296e-15 1.27966e-14 -1.249e-15 
2093 1 10.845 25.305 0 -6.21725e-15 -4.74013e-16 1.113e-14 
2095 1 12.6525 25.305 1.8075 6.84695e-15 -3.66027e-16 -1.27676e-15 
2058 1 16.2675 23.4975 0 1.20737e-14 1.20598e-14 1.03945e-14 
2060 1 14.46 23.4975 1.8075 -1.2922e-14 1.28005e-14 -1.40686e-15 
2097 1 14.46 25.305 0 -1.29063e-14 -5.2779e-16 1.10363e-14 
2099 1 16.2675 25.305 1.8075 1.34476e-14 -3.85109e-16 -1.33921e-15 
2082 1 1.8075 27.1125 0 -1.84765e-06 2.08006e-06 -2.32406e-07 
2084 1 0 27.1125 1.8075 -4.30535e-06 8.61071e-06 -4.30535e-06 
2121 1 0 28.92 0 -0.000563356 0.000818485 -0.00025595 
2123 1 1.8075 28.92 1.8075 -1.44966e-05 1.44966e-05 -8.89745e-06 
2086 1 5.4225 27.1125 0 1.94289e-16 2.33754e-16 1.06304e-14 
2088 1 3.615 27.1125 1.8075 2.38524e-17 2.81893e-16 -1.19349e-15 
2125 1 3.615 28.92 0 -2.08006e-06 1.84765e-06 -2.32406e-07 
2127 1 5.4225 28.92 1.8075 1.89085e-16 -1.28907e-14 -1.05471e-15 
2090 1 9.0375 27.1125 0 5.94143e-15 3.39572e-16 1.09912e-14 
2092 1 7.23 27.1125 1.8075 -3.52279e-15 2.81459e-16 -1.27676e-15 
2129 1 7.23 28.92 0 -2.81199e-15 -1.1568e-14 9.88098e-15 
2131 1 9.0375 28.92 1.8075 6.03857e-15 -1.21327e-14 -1.16573e-15 
2094 1 12.6525 27.1125 0 6.37858e-15 3.2396e-16 1.10745e-14 
2096 1 10.845 27.1125 1.8075 -6.79491e-15 3.27429e-16 -1.249e-15 
2133 1 10.845 28.92 0 -5.64999e-15 -1.15017e-14 1.04916e-14 
2135 1 12.6525 28.92 1.8075 6.3196e-15 -1.21066e-14 -1.16573e-15 
2098 1 16.2675 27.1125 0 1.26843e-14 3.60822e-16 1.09635e-14 
2100 1 14.46 27.1125 1.8075 -1.36384e-14 3.08781e-16 -1.18915e-15 
2137 1 14.46 28.92 0 -1.23165e-14 -1.1486e-14 1.06096e-14 
2139 1 16.2675 28.92 1.8075 1.27988e-14 -1.21465e-14 -1.16573e-15 
2122 1 1.8075 30.7275 0 -0.000818485 0.000563356 -0.00025595 
2124 1 0 30.7275 1.8075 -0.00128993 0.00128993 -0.00128993 
2161 1 0 32.535 0 -0.00367662 0.00183908 -0.00183908 
2163 1 1.8075 32.535 1.8075 -0.000818485 0.00025595 -0.000563356 
2126 1 5.4225 30.7275 0 2.22045e-16 -4.58401e-16 9.07607e-15 
2128 1 3.615 30.7275 1.8075 -8.61071e-06 4.30535e-06 -4.30535e-06 
2165 1 3.615 32.535 0 -0.000107698 2.77049e-05 -2.77049e-05 
2167 1 5.4225 32.535 1.8075 1.9082e-16 2.64949e-14 -1.27676e-15 
2130 1 9.0375 30.7275 0 4.82774e-15 -3.70797e-16 9.76996e-15 
2132 1 7.23 30.7275 1.8075 -2.25384e-15 -4.35849e-16 -1.249e-15 
2169 1 7.23 32.535 0 -2.10942e-15 2.59376e-14 9.84629e-15 
2171 1 9.0375 32.535 1.8075 6.06112e-15 2.7125e-14 -1.3327e-15 
2134 1 12.6525 30.7275 0 5.2458e-15 -4.4539e-16 9.74221e-15 
2136 1 10.845 30.7275 1.8075 -5.64392e-15 -3.62124e-16 -1.36002e-15 
2173 1 10.845 32.535 0 -5.71591e-15 2.65343e-14 1.05263e-14 
2175 1 12.6525 32.535 1.8075 6.30572e-15 2.71575e-14 -1.27676e-15 
2138 1 16.2675 30.7275 0 1.14492e-14 -4.71845e-16 9.83935e-15 
2140 1 14.46 30.7275 1.8075 -1.22454e-14 -4.2067e-16 -1.29237e-15 
2177 1 14.46 32.535 0 -1.28994e-14 2.5909e-14 1.05818e-14 
2179 1 16.2675 32.535 1.8075 1.34476e-14 2.65656e-14 -1.42247e-15 
2162 1 1.8075 34.3425 0 -0.00526798 -2.58092e-14 -0.00179136 
2164 1 0 34.3425 1.8075 -0.015877 -2.54935e-14 -0.015877 
2166 1 5.4225 34.3425 0 2.77556e-16 -2.57017e-14 9.9018e-15 
2168 1 3.615 34.3425 1.8075 -2.9691e-05 -2.60313e-14 -1.84274e-05 
2170 1 9.0375 34.3425 0 5.45917e-15 -2.61874e-14 1.05332e-14 
2172 1 7.23 34.3425 1.8075 -2.08514e-15 -2.60521e-14 -1.30451e-15 
2174 1 12.6525 34.3425 0 5.79745e-15 -2.61909e-14 1.0561e-14 
2176 1 10.845 34.3425 1.8075 -6.24544e-15 -2.6628e-14 -1.29063e-15 
2178 1 16.2675 34.3425 0 1.28092e-14 -2.56462e-14 1.06234e-14 
2180 1 14.46 34.3425 1.8075 -1.33973e-14 -2.60209e-14 -1.05558e-15 
201 1 0 0 3.615 -0.000563356 -0.00025595 -0.000818485 
202 1 1.8075 1.8075 3.615 -1.44966e-05 -8.89745e-06 -1.44966e-05 
203 1 1.8075 0 5.4225 -1.84765e-06 -2.32406e-07 -2.08006e-06 
204 1 0 1.8075 5.4225 -4.30535e-06 -4.30535e-06 -8.61071e-06 
205 1 3.615 0 3.615 -2.08006e-06 -2.32406e-07 -1.84765e-06 
206 1 5.4225 1.8075 3.615 1.89085e-16 -1.30451e-15 2.42861e-17 
207 1 5.4225 0 5.4225 2.86229e-16 9.13158e-15 2.56739e-16 
208 1 3.615 1.8075 5.4225 7.76289e-17 -1.13798e-15 5.55112e-17 
209 1 7.23 0 3.615 -2.21177e-15 9.38138e-15 1.80411e-16 
210 1 9.0375 1.8075 3.615 6.69256e-15 -1.22125e-15 1.04083e-17 
211 1 9.0375 0 5.4225 6.02816e-15 9.82547e-15 2.5327e-16 
212 1 7.23 1.8075 5.4225 -2.18619e-15 -1.02696e-15 2.42861e-17 
213 1 10.845 0 3.615 -6.2424e-15 9.96425e-15 1.04083e-16 
214 1 12.6525 1.8075 3.615 7.01522e-15 -1.22125e-15 1.249e-16 
215 1 12.6525 0 5.4225 6.39419e-15 9.88098e-15 2.08167e-16 
216 1 10.845 1.8075 5.4225 -6.83004e-15 -9.15934e-16 2.08167e-17 
217 1 14.46 0 3.615 -1.27953e-14 9.93823e-15 9.88792e-17 
218 1 16.2675 1.8075 3.615 1.32221e-14 -1.31839e-15 4.85723e-17 
219 1 16.2675 0 5.4225 1.26843e-14 9.85323e-15 1.52656e-16 
220 1 14.46 1.8075 5.4225 -1.33782e-14 -1.08073e-15 7.80626e-18 
241 1 0 3.615 3.615 -8.89745e-06 -1.44966e-05 -1.44966e-05 
242 1 1.8075 5.4225 3.615 -1.19349e-15 1.50921e-16 -1.04083e-17 
243 1 1.8075 3.615 5.4225 -1.11022e-15 6.245e-17 4.85723e-17 
244 1 0 5.4225 5.4225 9.32587e-15 1.80411e-16 2.70617e-16 
245 1 3.615 3.615 3.615 5.94143e-17 4.2067e-17 8.06646e-17 
246 1 5.4225 5.4225 3.615 2.22045e-16 2.02963e-16 5.20417e-17 
247 1 5.4225 3.615 5.4225 2.09902e-16 3.46945e-18 1.16226e-16 
248 1 3.615 5.4225 5.4225 1.38778e-17 2.02963e-16 4.85723e-17 
249 1 7.23 3.615 3.615 -2.14542e-15 6.80879e-17 1.0842e-16 
250 1 9.0375 5.4225 3.615 6.64399e-15 1.75207e-16 1.00614e-16 
251 1 9.0375 3.615 5.4225 6.6197e-15 3.46945e-18 2.02963e-16 
252 1 7.23 5.4225 5.4225 -2.14065e-15 1.23165e-16 1.50921e-16 
253 1 10.845 3.615 3.615 -6.83698e-15 3.03577e-17 4.29344e-17 
254 1 12.6525 5.4225 3.615 6.97706e-15 1.73472e-16 1.31839e-16 
255 1 12.6525 3.615 5.4225 6.99961e-15 3.46945e-17 1.42247e-16 
256 1 10.845 5.4225 5.4225 -6.85563e-15 1.76942e-16 1.76942e-16 
257 1 14.46 3.615 3.615 -1.34684e-14 8.58688e-17 1.76942e-16 
258 1 16.2675 5.4225 3.615 1.33539e-14 1.38778e-16 1.80411e-16 
259 1 16.2675 3.615 5.4225 1.33019e-14 1.80411e-16 1.80411e-16 
260 1 14.46 5.4225 5.4225 -1.34068e-14 1.61763e-16 1.70437e-16 
281 1 0 7.23 3.615 9.4369e-15 -2.14412e-15 1.11022e-16 
282 1 1.8075 9.0375 3.615 -1.05471e-15 6.55379e-15 3.81639e-17 
283 1 1.8075 7.23 5.4225 -1.02696e-15 -2.16147e-15 -5.55112e-17 
284 1 0 9.0375 5.4225 9.96425e-15 6.03684e-15 2.42861e-16 
285 1 3.615 7.23 3.615 5.94143e-17 -2.14368e-15 6.67869e-17 
286 1 5.4225 9.0375 3.615 1.21431e-16 6.63011e-15 1.00614e-16 
287 1 5.4225 7.23 5.4225 1.97758e-16 -2.15453e-15 8.50015e-17 
288 1 3.615 9.0375 5.4225 2.08167e-17 6.65093e-15 1.11022e-16 
289 1 7.23 7.23 3.615 -2.1992e-15 -2.23042e-15 6.67869e-17 
290 1 9.0375 9.0375 3.615 6.14266e-15 6.04725e-15 1.00614e-16 
291 1 9.0375 7.23 5.4225 6.14613e-15 -2.76515e-15 1.96024e-16 
292 1 7.23 9.0375 5.4225 -2.79637e-15 6.07847e-15 1.9082e-16 
293 1 10.845 7.23 3.615 -6.2849e-15 -2.78163e-15 8.06646e-17 
294 1 12.6525 9.0375 3.615 6.32307e-15 6.10796e-15 1.59595e-16 
295 1 12.6525 7.23 5.4225 6.3595e-15 -2.78944e-15 2.22045e-16 
296 1 10.845 9.0375 5.4225 -6.25541e-15 6.05765e-15 2.11636e-16 
297 1 14.46 7.23 3.615 -1.28994e-14 -2.82673e-15 1.17094e-16 
298 1 16.2675 9.0375 3.615 1.2837e-14 5.97092e-15 1.249e-16 
299 1 16.2675 7.23 5.4225 1.27259e-14 -2.85882e-15 1.80411e-16 
300 1 14.46 9.0375 5.4225 -1.30469e-14 6.01125e-15 1.73906e-16 
321 1 0 10.845 3.615 9.9365e-15 -6.34215e-15 3.46945e-17 
322 1 1.8075 12.6525 3.615 -1.05471e-15 6.84869e-15 -6.59195e-17 
323 1 1.8075 10.845 5.4225 -8.60423e-16 -6.94236e-15 -3.1225e-17 
324 1 0 12.6525 5.4225 1.00059e-14 6.43929e-15 2.498e-16 
325 1 3.615 10.845 3.615 2.1684e-17 -6.85866e-15 1.12323e-16 
326 1 5.4225 12.6525 3.615 2.06432e-16 6.91981e-15 2.08167e-17 
327 1 5.4225 10.845 5.4225 1.14492e-16 -6.85216e-15 1.5786e-16 
328 1 3.615 12.6525 5.4225 6.93889e-18 6.89206e-15 1.23165e-16 
329 1 7.23 10.845 3.615 -2.80114e-15 -6.29705e-15 1.07987e-16 
330 1 9.0375 12.6525 3.615 6.13572e-15 6.33521e-15 2.42861e-17 
331 1 9.0375 10.845 5.4225 6.14613e-15 -6.24154e-15 1.37043e-16 
332 1 7.23 12.6525 5.4225 -2.82413e-15 6.3196e-15 2.02963e-16 
333 1 10.845 10.845 3.615 -6.29748e-15 -6.30355e-15 4.25007e-17 
334 1 12.6525 12.6525 3.615 6.24154e-15 6.31266e-15 5.55112e-17 
335 1 12.6525 10.845 5.4225 6.29011e-15 -6.39072e-15 5.20417e-17 
336 1 10.845 12.6525 5.4225 -6.29011e-15 6.26409e-15 6.245e-17 
337 1 14.46 10.845 3.615 -1.30521e-14 -6.27189e-15 1.30104e-16 
338 1 16.2675 12.6525 3.615 1.28127e-14 6.27276e-15 1.52656e-16 
339 1 16.2675 10.845 5.4225 1.28647e-14 -6.27276e-15 1.45717e-16 
340 1 14.46 12.6525 5.4225 -1.29983e-14 6.30442e-15 7.89299e-17 
361 1 0 14.46 3.615 9.9365e-15 -1.27572e-14 8.32667e-17 
362 1 1.8075 16.2675 3.615 -1.13798e-15 1.33817e-14 5.20417e-18 
363 1 1.8075 14.46 5.4225 -1.08247e-15 -1.33591e-14 2.42861e-17 
364 1 0 16.2675 5.4225 9.88098e-15 1.28092e-14 2.15106e-16 
365 1 3.615 14.46 3.615 5.63785e-17 -1.33535e-14 -2.60209e-17 
366 1 5.4225 16.2675 3.615 1.92554e-16 1.34411e-14 1.1666e-16 
367 1 5.4225 14.46 5.4225 2.02963e-16 -1.33331e-14 1.45717e-16 
368 1 3.615 16.2675 5.4225 1.11022e-16 1.34788e-14 1.55258e-16 
369 1 7.23 14.46 3.615 -2.78597e-15 -1.27932e-14 1.21431e-17 
370 1 9.0375 16.2675 3.615 6.02296e-15 1.28166e-14 1.44416e-16 
371 1 9.0375 14.46 5.4225 6.03857e-15 -1.29133e-14 8.32667e-17 
372 1 7.23 16.2675 5.4225 -2.85709e-15 1.28816e-14 1.37477e-16 
373 1 10.845 14.46 3.615 -6.31439e-15 -1.30716e-14 5.42101e-17 
374 1 12.6525 16.2675 3.615 6.26756e-15 1.27966e-14 2.37223e-16 
375 1 12.6525 14.46 5.4225 6.30745e-15 -1.29723e-14 1.73472e-18 
376 1 10.845 16.2675 5.4225 -6.26929e-15 1.28959e-14 1.24033e-16 
377 1 14.46 14.46 3.615 -1.30382e-14 -1.30304e-14 7.11237e-17 
378 1 16.2675 16.2675 3.615 1.28127e-14 1.29168e-14 1.45717e-16 
379 1 16.2675 14.46 5.4225 1.29202e-14 -1.29202e-14 1.52656e-16 
380 1 14.46 16.2675 5.4225 -1.28543e-14 1.2912e-14 1.68702e-16 
2201 1 0 18.075 3.615 1.06859e-14 -3.33067e-16 5.55112e-17 
2203 1 1.8075 18.075 5.4225 -7.91034e-16 -5.08274e-16 1.21431e-17 
2205 1 3.615 18.075 3.615 5.55112e-17 -3.32633e-16 1.09721e-16 
2207 1 5.4225 18.075 5.4225 1.42247e-16 -4.0766e-16 1.07553e-16 
2209 1 7.23 18.075 3.615 -3.50067e-15 -5.06973e-16 1.50487e-16 
2211 1 9.0375 18.075 5.4225 6.62838e-15 -4.83988e-16 1.14492e-16 
2213 1 10.845 18.075 3.615 -6.83134e-15 -3.81205e-16 1.7911e-16 
2215 1 12.6525 18.075 5.4225 6.81052e-15 -3.76435e-16 3.1225e-17 
2217 1 14.46 18.075 3.615 -1.35794e-14 -3.46945e-16 1.07553e-16 
2219 1 16.2675 18.075 5.4225 1.33712e-14 -3.19189e-16 6.245e-17 
2202 1 1.8075 19.8825 3.615 -1.11022e-15 3.42174e-16 5.50775e-17 
2241 1 0 21.69 3.615 9.95037e-15 -1.28508e-14 5.55112e-17 
2204 1 0 19.8825 5.4225 1.06304e-14 4.30211e-16 1.59595e-16 
2243 1 1.8075 21.69 5.4225 -8.18789e-16 -1.3419e-14 1.11022e-16 
2206 1 5.4225 19.8825 3.615 1.09288e-16 4.07226e-16 4.11997e-17 
2245 1 3.615 21.69 3.615 1.35308e-16 -1.33422e-14 1.34875e-16 
2208 1 3.615 19.8825 5.4225 5.37764e-17 3.79037e-16 8.67362e-17 
2247 1 5.4225 21.69 5.4225 1.89085e-16 -1.33366e-14 1.83881e-16 
2210 1 9.0375 19.8825 3.615 6.69083e-15 3.55185e-16 9.67108e-17 
2249 1 7.23 21.69 3.615 -2.90219e-15 -1.27758e-14 1.10155e-16 
2212 1 7.23 19.8825 5.4225 -3.48332e-15 4.67942e-16 1.09721e-16 
2251 1 9.0375 21.69 5.4225 5.97439e-15 -1.2778e-14 1.49186e-16 
2214 1 12.6525 19.8825 3.615 6.84175e-15 4.19369e-16 5.1608e-17 
2253 1 10.845 21.69 3.615 -6.23113e-15 -1.27472e-14 1.38344e-16 
2216 1 10.845 19.8825 5.4225 -6.84348e-15 4.13298e-16 5.50775e-17 
2255 1 12.6525 21.69 5.4225 6.245e-15 -1.27693e-14 3.46945e-17 
2218 1 16.2675 19.8825 3.615 1.34337e-14 3.05311e-16 8.32667e-17 
2257 1 14.46 21.69 3.615 -1.29965e-14 -1.28196e-14 6.245e-17 
2220 1 14.46 19.8825 5.4225 -1.35534e-14 3.09648e-16 6.41848e-17 
2259 1 16.2675 21.69 5.4225 1.28265e-14 -1.283e-14 1.8735e-16 
2242 1 1.8075 23.4975 3.615 -1.22125e-15 1.32424e-14 -2.29851e-17 
2281 1 0 25.305 3.615 1.06304e-14 -3.05311e-16 5.55112e-17 
2244 1 0 23.4975 5.4225 9.82547e-15 1.2719e-14 2.35922e-16 
2283 1 1.8075 25.305 5.4225 -7.07767e-16 -5.08274e-16 3.98986e-17 
2246 1 5.4225 23.4975 3.615 1.37043e-16 1.32711e-14 1.54824e-16 
2285 1 3.615 25.305 3.615 6.93889e-17 -3.67328e-16 6.80879e-17 
2248 1 3.615 23.4975 5.4225 1.35308e-16 1.33261e-14 2.24647e-16 
2287 1 5.4225 25.305 5.4225 1.66533e-16 -3.93782e-16 1.21431e-16 
2250 1 9.0375 23.4975 3.615 6.01949e-15 1.28686e-14 1.54824e-16 
2289 1 7.23 25.305 3.615 -3.47639e-15 -5.06973e-16 1.22732e-16 
2252 1 7.23 23.4975 5.4225 -2.90219e-15 1.27697e-14 2.44162e-16 
2291 1 9.0375 25.305 5.4225 6.60062e-15 -4.42354e-16 8.67362e-17 
2254 1 12.6525 23.4975 3.615 6.3196e-15 1.27281e-14 1.61763e-16 
2293 1 10.845 25.305 3.615 -6.82961e-15 -3.95083e-16 1.7911e-16 
2256 1 10.845 23.4975 5.4225 -6.26235e-15 1.28122e-14 1.34007e-16 
2295 1 12.6525 25.305 5.4225 6.72726e-15 -4.31946e-16 1.73472e-17 
2258 1 16.2675 23.4975 3.615 1.28231e-14 1.27953e-14 4.85723e-17 
2297 1 14.46 25.305 3.615 -1.36835e-14 -4.84855e-16 5.55112e-17 
2260 1 14.46 23.4975 5.4225 -1.29723e-14 1.28213e-14 9.62772e-17 
2299 1 16.2675 25.305 5.4225 1.34545e-14 -4.02456e-16 1.04083e-16 
2282 1 1.8075 27.1125 3.615 -1.11022e-15 2.36356e-16 -2.1684e-18 
2321 1 0 28.92 3.615 -8.89745e-06 1.44966e-05 -1.44966e-05 
2284 1 0 27.1125 5.4225 1.06026e-14 3.1572e-16 2.22045e-16 
2323 1 1.8075 28.92 5.4225 -8.46545e-16 -1.29992e-14 1.61329e-16 
2286 1 5.4225 27.1125 3.615 1.11022e-16 3.53884e-16 9.58435e-17 
2325 1 3.615 28.92 3.615 1.38778e-16 -1.28994e-14 1.56559e-16 
2288 1 3.615 27.1125 5.4225 5.55112e-17 3.25694e-16 1.35742e-16 
2327 1 5.4225 28.92 5.4225 2.35922e-16 -1.28439e-14 2.18575e-16 
2290 1 9.0375 27.1125 3.615 6.64746e-15 3.01842e-16 1.23599e-16 
2329 1 7.23 28.92 3.615 -2.88311e-15 -1.22146e-14 1.59595e-16 
2292 1 7.23 27.1125 5.4225 -3.51108e-15 3.69496e-16 1.57426e-16 
2331 1 9.0375 28.92 5.4225 5.94316e-15 -1.21014e-14 1.63064e-16 
2294 1 12.6525 27.1125 3.615 6.77063e-15 3.07046e-16 5.07407e-17 
2333 1 10.845 28.92 3.615 -6.20511e-15 -1.22072e-14 1.60028e-16 
2296 1 10.845 27.1125 5.4225 -6.84175e-15 2.6975e-16 1.04083e-16 
2335 1 12.6525 28.92 5.4225 6.23113e-15 -1.22107e-14 9.71445e-17 
2298 1 16.2675 27.1125 3.615 1.34615e-14 2.63678e-16 8.32667e-17 
2337 1 14.46 28.92 3.615 -1.28578e-14 -1.21704e-14 2.77556e-17 
2300 1 14.46 27.1125 5.4225 -1.3595e-14 3.36536e-16 8.41341e-17 
2339 1 16.2675 28.92 5.4225 1.283e-14 -1.21361e-14 2.28983e-16 
2322 1 1.8075 30.7275 3.615 -1.44966e-05 8.89745e-06 -1.44966e-05 
2361 1 0 32.535 3.615 -0.000563356 0.00025595 -0.000818485 
2324 1 0 30.7275 5.4225 -4.30535e-06 4.30535e-06 -8.61071e-06 
2363 1 1.8075 32.535 5.4225 -1.84765e-06 2.32406e-07 -2.08006e-06 
2326 1 5.4225 30.7275 3.615 2.13371e-16 -6.1149e-16 8.06646e-17 
2365 1 3.615 32.535 3.615 -2.08006e-06 2.32406e-07 -1.84765e-06 
2328 1 3.615 30.7275 5.4225 1.70003e-16 -5.9501e-16 2.09034e-16 
2367 1 5.4225 32.535 5.4225 3.27863e-16 2.64125e-14 2.4503e-16 
2330 1 9.0375 30.7275 3.615 5.40193e-15 -3.66894e-16 2.02095e-16 
2369 1 7.23 32.535 3.615 -2.08514e-15 2.65274e-14 3.81639e-17 
2332 1 7.23 30.7275 5.4225 -2.29677e-15 -5.22152e-16 1.69136e-16 
2371 1 9.0375 32.535 5.4225 6.04551e-15 2.7207e-14 2.29417e-16 
2334 1 12.6525 30.7275 3.615 5.69857e-15 -4.51895e-16 7.37257e-17 
2373 1 10.845 32.535 3.615 -6.30919e-15 2.71519e-14 1.73472e-17 
2336 1 10.845 30.7275 5.4225 -5.67428e-15 -4.38451e-16 1.69569e-16 
2375 1 12.6525 32.535 5.4225 6.4046e-15 2.71792e-14 1.66967e-16 
2338 1 16.2675 30.7275 3.615 1.21986e-14 -4.02456e-16 9.71445e-17 
2377 1 14.46 32.535 3.615 -1.33851e-14 2.65235e-14 3.81639e-17 
2340 1 14.46 30.7275 5.4225 -1.22055e-14 -3.57353e-16 2.17708e-16 
2379 1 16.2675 32.535 5.4225 1.33817e-14 2.66558e-14 1.8735e-16 
2362 1 1.8075 34.3425 3.615 -0.000118282 -2.62394e-14 -0.000118282 
2364 1 0 34.3425 5.4225 -1.84274e-05 -2.5438e-14 -2.9691e-05 
2366 1 5.4225 34.3425 3.615 2.68882e-16 -2.61458e-14 2.15106e-16 
2368 1 3.615 34.3425 5.4225 -8.90332e-08 -2.58855e-14 -8.90332e-08 
2370 1 9.0375 34.3425 3.615 6.075e-15 -2.68466e-14 1.97758e-16 
2372 1 7.23 34.3425 5.4225 -2.05044e-15 -2.59306e-14 3.40006e-16 
2374 1 12.6525 34.3425 3.615 6.3248e-15 -2.68188e-14 2.56739e-16 
2376 1 10.845 34.3425 5.4225 -6.28837e-15 -2.65621e-14 2.22045e-16 
2378 1 16.2675 34.3425 3.615 1.33088e-14 -2.6229e-14 2.56739e-16 
2380 1 14.46 34.3425 5.4225 -1.33105e-14 -2.58526e-14 2.498e-16 
401 1 0 0 7.23 9.38138e-15 9.38138e-15 -2.06085e-15 
402 1 1.8075 1.8075 7.23 -1.05471e-15 -1.26288e-15 -2.20483e-15 
403 1 1.8075 0 9.0375 -9.99201e-16 9.91048e-15 5.83561e-15 
404 1 0 1.8075 9.0375 9.89486e-15 -9.71445e-16 5.88418e-15 
405 1 3.615 0 7.23 9.88792e-17 9.35363e-15 -2.11636e-15 
406 1 5.4225 1.8075 7.23 2.22045e-16 -1.36002e-15 -2.20657e-15 
407 1 5.4225 0 9.0375 2.75821e-16 9.88098e-15 5.95704e-15 
408 1 3.615 1.8075 9.0375 7.45931e-17 -9.4369e-16 6.54685e-15 
409 1 7.23 0 7.23 -2.20136e-15 9.27036e-15 -2.1233e-15 
410 1 9.0375 1.8075 7.23 6.11143e-15 -1.16573e-15 -2.85882e-15 
411 1 9.0375 0 9.0375 5.43315e-15 1.03251e-14 5.42622e-15 
412 1 7.23 1.8075 9.0375 -2.76862e-15 -9.99201e-16 5.96398e-15 
413 1 10.845 0 7.23 -5.70897e-15 9.85323e-15 -2.75474e-15 
414 1 12.6525 1.8075 7.23 6.32133e-15 -1.13798e-15 -2.88138e-15 
415 1 12.6525 0 9.0375 5.81653e-15 1.04083e-14 5.44703e-15 
416 1 10.845 1.8075 9.0375 -6.23243e-15 -9.4369e-16 5.92582e-15 
417 1 14.46 0 7.23 -1.23304e-14 9.83588e-15 -2.80158e-15 
418 1 16.2675 1.8075 7.23 1.26739e-14 -1.20737e-15 -2.96985e-15 
419 1 16.2675 0 9.0375 1.21222e-14 1.02279e-14 5.48173e-15 
420 1 14.46 1.8075 9.0375 -1.30954e-14 -1.05298e-15 5.92018e-15 
441 1 0 3.615 7.23 9.38138e-15 1.04083e-16 -2.06085e-15 
442 1 1.8075 5.4225 7.23 -1.22125e-15 1.16226e-16 -2.24994e-15 
443 1 1.8075 3.615 9.0375 -1.02696e-15 -8.67362e-18 6.58154e-15 
444 1 0 5.4225 9.0375 9.96425e-15 1.80411e-16 6.01602e-15 
445 1 3.615 3.615 7.23 6.1149e-17 2.81893e-17 -2.02876e-15 
446 1 5.4225 5.4225 7.23 2.77556e-16 2.2031e-16 -2.1684e-15 
447 1 5.4225 3.615 9.0375 2.28983e-16 -1.73472e-17 6.60583e-15 
448 1 3.615 5.4225 9.0375 -4.51028e-17 1.50921e-16 6.68909e-15 
449 1 7.23 3.615 7.23 -2.16233e-15 5.59448e-17 -2.13935e-15 
450 1 9.0375 5.4225 7.23 6.14439e-15 1.33574e-16 -2.81372e-15 
451 1 9.0375 3.615 9.0375 6.10276e-15 -2.42861e-17 6.08541e-15 
452 1 7.23 5.4225 9.0375 -2.75474e-15 1.64799e-16 6.1201e-15 
453 1 10.845 3.615 7.23 -6.28273e-15 1.64799e-17 -2.76038e-15 
454 1 12.6525 5.4225 7.23 6.34909e-15 2.08167e-16 -2.83801e-15 
455 1 12.6525 3.615 9.0375 6.35603e-15 1.73472e-17 6.07847e-15 
456 1 10.845 5.4225 9.0375 -6.29011e-15 5.55112e-17 6.11837e-15 
457 1 14.46 3.615 7.23 -1.29341e-14 1.32706e-16 -2.85796e-15 
458 1 16.2675 5.4225 7.23 1.27988e-14 1.83881e-16 -2.87964e-15 
459 1 16.2675 3.615 9.0375 1.28231e-14 1.38778e-16 5.9952e-15 
460 1 14.46 5.4225 9.0375 -1.2961e-14 1.65666e-16 5.97829e-15 
481 1 0 7.23 7.23 9.38138e-15 -2.1684e-15 -2.13024e-15 
482 1 1.8075 9.0375 7.23 -1.13798e-15 6.01602e-15 -2.85362e-15 
483 1 1.8075 7.23 9.0375 -1.08247e-15 -2.73739e-15 5.90847e-15 
484 1 0 9.0375 9.0375 1.04639e-14 5.53724e-15 5.52336e-15 
485 1 3.615 7.23 7.23 -1.12757e-17 -2.14542e-15 -2.15756e-15 
486 1 5.4225 9.0375 7.23 1.8735e-16 6.14439e-15 -2.73045e-15 
487 1 5.4225 7.23 9.0375 2.39392e-16 -2.71658e-15 6.14092e-15 
488 1 3.615 9.0375 9.0375 -4.51028e-17 6.1201e-15 6.07847e-15 
489 1 7.23 7.23 7.23 -2.20093e-15 -2.24603e-15 -2.15366e-15 
490 1 9.0375 9.0375 7.23 5.60142e-15 5.47826e-15 -3.34108e-15 
491 1 9.0375 7.23 9.0375 5.58754e-15 -3.35496e-15 5.52336e-15 
492 1 7.23 9.0375 9.0375 -3.38965e-15 5.6205e-15 5.4956e-15 
493 1 10.845 7.23 7.23 -5.76275e-15 -2.74347e-15 -2.77816e-15 
494 1 12.6525 9.0375 7.23 5.78704e-15 5.49734e-15 -3.42087e-15 
495 1 12.6525 7.23 9.0375 5.78877e-15 -3.35149e-15 5.51122e-15 
496 1 10.845 9.0375 9.0375 -5.75581e-15 5.53724e-15 5.56499e-15 
497 1 14.46 7.23 7.23 -1.2372e-14 -2.80678e-15 -2.88918e-15 
498 1 16.2675 9.0375 7.23 1.22333e-14 5.46785e-15 -3.3723e-15 
499 1 16.2675 7.23 9.0375 1.22055e-14 -3.3723e-15 5.52336e-15 
500 1 14.46 9.0375 9.0375 -1.23486e-14 5.4492e-15 5.50992e-15 
521 1 0 10.845 7.23 9.96425e-15 -5.76622e-15 -2.67147e-15 
522 1 1.8075 12.6525 7.23 -1.13798e-15 6.18429e-15 -2.84148e-15 
523 1 1.8075 10.845 9.0375 -9.99201e-16 -6.33174e-15 5.98827e-15 
524 1 0 12.6525 9.0375 1.04083e-14 5.71765e-15 5.45397e-15 
525 1 3.615 10.845 7.23 6.1149e-17 -6.35212e-15 -2.65326e-15 
526 1 5.4225 12.6525 7.23 1.92554e-16 6.26582e-15 -2.80678e-15 
527 1 5.4225 10.845 9.0375 1.75207e-16 -6.24847e-15 6.075e-15 
528 1 3.615 12.6525 9.0375 -3.46945e-18 6.23633e-15 6.20337e-15 
529 1 7.23 10.845 7.23 -2.88485e-15 -5.79745e-15 -2.72265e-15 
530 1 9.0375 12.6525 7.23 5.55458e-15 5.76622e-15 -3.38965e-15 
531 1 9.0375 10.845 9.0375 5.60316e-15 -5.8252e-15 5.51989e-15 
532 1 7.23 12.6525 9.0375 -3.44169e-15 5.75234e-15 5.56152e-15 
533 1 10.845 10.845 7.23 -5.76145e-15 -5.8664e-15 -3.40266e-15 
534 1 12.6525 12.6525 7.23 5.71071e-15 5.65346e-15 -3.33067e-15 