LAMMPS (3 Mar 2020)
units		  metal
atom_style	  atomic
timestep 	  0.002
dimension	  3
boundary	  p p p

read_data Cu_SC_N4000_1vac.dat
  orthogonal box = (0 0 0) to (36.15 36.15 36.15)
  2 by 1 by 2 MPI processor grid
  reading atoms ...
  3999 atoms
  read_data CPU = 0.010541 secs

##Be careful to use eam/alloy type Mishin copper potential with funcfl format

pair_style eam/alloy
pair_coeff * * /home/ldoan/lammps-3Mar20/potentials/Cu_mishin1.eam.alloy Cu
Reading potential file /home/ldoan/lammps-3Mar20/potentials/Cu_mishin1.eam.alloy with DATE: 2007-10-12

neighbor 1.0 bin
neigh_modify every 1 delay 0 check yes

dump atompos all custom 1000 dump.pos.*.dat id type x y z fx fy fz

thermo_style   custom step time temp lx vol pe press pxx
thermo_modify  flush yes
thermo 100

min_style cg
minimize 1.0e-10 1.0e-4 5000 500000
Neighbor list info ...
  update every 1 steps, delay 0 steps, check yes
  max neighbors/atom: 2000, page size: 100000
  master list distance cutoff = 6.50679
  ghost atom cutoff = 6.50679
  binsize = 3.25339, bins = 12 12 12
  1 neighbor lists, perpetual/occasional/extra = 1 0 0
  (1) pair eam/alloy, perpetual
      attributes: half, newton on
      pair build: half/bin/atomonly/newton
      stencil: half/bin/3d/newton
      bin: standard
Per MPI rank memory allocation (min/avg/max) = 5.892 | 5.892 | 5.892 Mbytes
Step Time Temp Lx Volume PotEng Press Pxx 
       0            0            0        36.15    47241.633   -14156.024   -166.55504   -166.55504 
      15         0.03            0        36.15    47241.633   -14156.061   -189.34999   -189.34999 
Loop time of 0.0560668 on 4 procs for 15 steps with 3999 atoms

111.5% CPU use with 4 MPI tasks x no OpenMP threads

Minimization stats:
  Stopping criterion = energy tolerance
  Energy initial, next-to-last, final = 
        -14156.0236985     -14156.0605059     -14156.0605069
  Force two-norm initial, final = 0.595946 0.00235515
  Force max component initial, final = 0.117627 0.000161495
  Final line search alpha, max atom move = 1 0.000161495
  Iterations, force evaluations = 15 30

MPI task timing breakdown:
Section |  min time  |  avg time  |  max time  |%varavg| %total
---------------------------------------------------------------
Pair    | 0.040492   | 0.045671   | 0.050862   |   2.3 | 81.46
Neigh   | 0          | 0          | 0          |   0.0 |  0.00
Comm    | 0.0013402  | 0.0065702  | 0.011775   |   6.1 | 11.72
Output  | 0          | 0          | 0          |   0.0 |  0.00
Modify  | 0          | 0          | 0          |   0.0 |  0.00
Other   |            | 0.003826   |            |       |  6.82

Nlocal:    999.75 ave 1000 max 999 min
Histogram: 1 0 0 0 0 0 0 0 0 3
Nghost:    2899.25 ave 2900 max 2899 min
Histogram: 3 0 0 0 0 0 0 0 0 1
Neighs:    42978.5 ave 43000 max 42922 min
Histogram: 1 0 0 0 0 0 0 0 1 2

Total # of neighbors = 171914
Ave neighs/atom = 42.9892
Neighbor list builds = 0
Dangerous builds = 0

Total wall time: 0:00:00
