ITEM: TIMESTEP
50000
ITEM: NUMBER OF ATOMS
4000
ITEM: BOX BOUNDS pp pp pp
-1.1688470582315276e+00 3.7318847058232322e+01
-1.1688470582315276e+00 3.7318847058232322e+01
-1.1688470582315276e+00 3.7318847058232322e+01
ITEM: ATOMS id type xu yu zu 
2138 1 26.7251 50.0659 -0.322385 
3619 1 27.6201 17.2332 14.5436 
3725 1 -2.16151 38.6747 41.1851 
2682 1 -0.607809 40.2515 -36.8495 
706 1 27.758 17.0276 12.349 
2457 1 5.26576 3.76743 -0.217953 
1850 1 4.32812 0.19363 41.0717 
1792 1 13.7824 8.2991 37.5866 
817 1 8.04701 3.12324 1.19551 
3703 1 40.1964 17.0137 38.2602 
843 1 8.02645 1.38692 -0.603449 
241 1 10.2522 1.07526 3.44276 
1613 1 8.35223 0.642427 4.87804 
1522 1 7.78173 7.371 17.209 
1054 1 12.0711 -0.19969 -0.265315 
716 1 33.9446 0.761001 14.6814 
2332 1 15.9538 40.7975 0.559417 
835 1 51.8125 1.73837 39.947 
3980 1 18.7458 42.7146 41.6033 
1584 1 19.2432 2.42226 40.3048 
193 1 18.0592 1.28449 3.65021 
883 1 19.5247 -0.0327545 1.57468 
1778 1 23.2689 2.11623 42.2856 
265 1 20.6751 2.83826 4.0292 
1538 1 20.8279 6.15671 40.9331 
299 1 -9.01404 4.20633 -0.75933 
1094 1 36.3256 18.0245 -0.748214 
2388 1 24.2108 40.5853 1.57136 
824 1 25.3712 3.18001 -0.0127878 
1673 1 26.0214 0.692265 2.08312 
1232 1 21.7672 1.09129 40.4832 
3696 1 -10.2847 2.08665 40.3249 
2294 1 27.4203 10.3041 14.9977 
92 1 27.6625 -0.658837 -24.2319 
2975 1 34.067 40.7484 2.82176 
304 1 8.0584 -22.1565 -21.2514 
1001 1 5.27477 16.8556 0.0210663 
3908 1 9.98407 39.6059 39.3007 
504 1 21.1282 -0.496513 16.7253 
3113 1 22.2348 16.3127 5.9778 
2850 1 -16.0238 13.4272 -1.17117 
2469 1 38.4708 43.4049 4.2145 
2683 1 2.98291 56.3665 13.741 
3602 1 4.81527 43.9953 40.0327 
140 1 38.5296 4.35666 1.515 
381 1 2.48891 5.09421 0.703305 
2594 1 15.299 13.0715 -0.267664 
1052 1 4.0369 3.20024 43.9234 
3029 1 7.78572 6.16876 4.84649 
65 1 44.2496 -1.07984 12.2333 
3487 1 10.8622 44.9019 39.7202 
6 1 5.76955 1.66468 4.36901 
2268 1 11.087 3.81203 1.64346 
1209 1 9.488 2.99118 41.5927 
1687 1 4.57431 3.32092 41.4497 
639 1 52.6785 7.35812 3.68236 
2107 1 -14.1429 14.6283 2.58399 
306 1 12.5658 5.24213 3.71294 
2442 1 4.13067 38.6069 10.441 
2093 1 18.1645 40.3149 -0.191314 
1946 1 16.8112 7.7094 42.0399 
983 1 16.9599 -0.972421 16.957 
1830 1 15.1799 1.19826 41.3612 
2998 1 21.1227 45.3755 4.65426 
3970 1 16.6455 41.3014 41.369 
3667 1 21.9921 41.6393 39.2759 
719 1 19.6372 8.00813 41.0405 
2398 1 26.3136 46.705 -0.300415 
147 1 24.4723 6.38161 -0.413874 
473 1 25.307 7.54896 1.89622 
331 1 23.1459 6.75448 2.28758 
1384 1 29.9276 3.99811 40.2308 
3987 1 43.0506 45.5168 37.5571 
2560 1 26.5211 43.9641 0.485008 
1199 1 32.1884 39.6043 39.1942 
2447 1 3.08459 39.9224 4.25557 
2962 1 -14.3203 15.489 43.5502 
2244 1 -4.68856 43.6358 -0.553681 
2319 1 36.5302 43.8837 0.190601 
2770 1 -3.47464 43.0273 4.17575 
3968 1 -5.10409 39.9805 55.8767 
3728 1 -21.57 38.588 40.0012 
1205 1 0.844389 9.04203 5.38426 
52 1 -2.01528 5.93605 2.80306 
1443 1 -1.05324 7.6307 39.4193 
634 1 41.2721 8.98318 -0.00429909 
3956 1 45.2309 43.2968 41.2811 
1716 1 45.5021 6.16562 45.846 
1703 1 4.53164 9.08792 41.8739 
2014 1 5.11162 8.45036 1.04651 
183 1 10.5441 7.30551 4.97796 
2289 1 6.17775 45.8895 3.02809 
179 1 7.10081 8.19061 -0.517082 
2361 1 4.5608 44.1038 5.14417 
866 1 23.9145 15.7807 7.54799 
928 1 13.5164 6.40283 40.3723 
2259 1 12.5416 13.7993 9.95755 
3374 1 10.1209 47.1918 40.1089 
2893 1 8.71924 15.075 13.4448 
2184 1 45.2421 44.093 -0.277769 
1571 1 14.3129 9.70436 40.2361 
979 1 18.271 6.05094 40.3202 
1351 1 30.0014 1.90615 38.4263 
276 1 15.9057 11.9188 2.04249 
2432 1 15.4889 7.26334 1.49872 
30 1 15.3605 10.2956 -0.0941158 
443 1 16.8178 9.636 2.43075 
2286 1 22.534 47.0675 3.55556 
25 1 32.0932 0.916484 13.7992 
950 1 27.2483 8.71549 2.4413 
700 1 5.18209 6.58896 16.54 
3624 1 22.0169 9.99709 40.2422 
1419 1 10.2684 17.3075 49.6645 
447 1 -1.19993 6.59175 18.0715 
90 1 11.4303 2.28756 -0.292488 
2037 1 30.835 5.80608 -0.288384 
506 1 32.3522 8.55081 1.63852 
3974 1 34.799 45.5583 1.03702 
2900 1 27.3367 16.288 1.87424 
1092 1 22.5417 8.99176 16.6506 
1869 1 38.4275 7.56845 42.3755 
836 1 35.1353 7.68595 41.9099 
1818 1 42.7866 11.1028 76.8883 
1918 1 20.6769 2.076 37.8013 
29 1 39.2579 9.20154 1.56113 
3427 1 39.7748 11.2406 39.0572 
2076 1 45.0353 10.6291 38.7609 
1937 1 3.20102 12.9517 40.1674 
733 1 7.72642 12.2003 -0.869609 
80 1 46.3407 8.61472 1.72921 
1490 1 9.90279 13.4905 3.47307 
2231 1 50.7293 9.45286 0.515705 
527 1 -6.10827 16.8839 14.0571 
1105 1 14.724 13.9492 5.91695 
3365 1 -4.0997 9.15196 17.2851 
3897 1 15.1892 15.2863 37.9903 
3520 1 29.3352 52.5692 37.8476 
1514 1 17.9187 5.73391 37.5566 
862 1 19.8306 13.9699 -0.809098 
2580 1 17.699 38.1732 5.9078 
2409 1 18.5265 11.4144 2.80291 
1076 1 21.4763 -1.02879 0.914141 
1906 1 29.4841 -26.6265 39.2243 
1280 1 25.6363 10.4059 39.4552 
1579 1 19.6406 10.3827 39.5678 
2290 1 -13.2416 51.0367 1.68379 
1712 1 23.6911 11.3922 38.8136 
1313 1 2.78564 14.487 16.2949 
22 1 1.5793 7.46497 -21.8756 
3748 1 23.8608 38.5109 46.4249 
134 1 -8.12798 8.64313 -0.450794 
1768 1 -5.11967 11.2157 39.5841 
1386 1 27.6071 3.06678 37.7251 
2322 1 -6.63149 51.3754 3.17147 
403 1 -4.3151 12.2658 3.00279 
2711 1 23.3793 16.881 41.5264 
34 1 35.1081 9.45852 1.61418 
3657 1 -1.58011 48.7018 41.2431 
711 1 35.5436 12.074 0.97524 
3589 1 40.403 54.4002 2.3583 
671 1 41.9637 15.1656 39.4145 
2836 1 61.5214 18.0297 39.5234 
3428 1 37.6463 12.7084 38.5572 
1311 1 44.1474 12.7993 0.452396 
2325 1 -0.0913397 37.6819 1.08086 
3951 1 19.0268 17.3079 56.3259 
922 1 5.62446 1.41712 1.00082 
2523 1 12.5972 44.3083 17.6979 
1134 1 21.1913 17.0285 3.50936 
2924 1 -22.2223 38.8747 13.3469 
2814 1 -7.16541 12.8278 37.9276 
2779 1 7.83063 52.9985 -0.291707 
3146 1 25.8204 17.8782 15.8696 
424 1 22.8499 -0.933578 3.10537 
881 1 9.85181 16.5971 0.381754 
742 1 16.7788 3.3537 16.4225 
859 1 23.8401 8.86661 38.8945 
2654 1 15.5505 17.325 9.23574 
2641 1 -23.6542 13.3511 16.5341 
3605 1 12.589 16.2897 38.9238 
300 1 24.7165 13.451 -0.70173 
2197 1 38.0107 56.3141 -22.3764 
1435 1 28.6531 -36.1583 17.4144 
1513 1 21.6043 15.5421 40.1668 
1591 1 22.1424 14.5361 42.1459 
2362 1 24.7675 51.7976 4.86922 
410 1 24.8454 16.3691 1.36219 
2218 1 8.12851 6.60649 1.25972 
2943 1 26.4577 14.4335 3.04284 
2346 1 27.2179 12.2942 4.91642 
849 1 -25.3949 -22.2055 8.57767 
1154 1 29.4431 16.3316 10.3843 
2152 1 32.2684 54.3313 3.00645 
3085 1 -7.44957 40.3036 17.2391 
3915 1 32.203 16.0373 39.2125 
713 1 17.9981 16.1388 -0.0935989 
888 1 19.3964 -0.477782 37.6439 
870 1 33.4388 13.9566 1.58033 
2974 1 -3.198 14.7485 0.612 
2519 1 49.4596 38.1629 15.9231 
138 1 3.31472 3.03336 0.576499 
514 1 20.1558 14.7515 5.57462 
2317 1 42.9713 37.3768 7.91151 
3887 1 12.7653 17.6499 50.6991 
1644 1 8.15572 1.18341 40.7072 
2358 1 44.3812 39.6962 7.26646 
2220 1 5.53574 8.96498 17.7914 
247 1 11.9373 2.85661 3.42969 
1480 1 21.6265 15.1149 14.3899 
211 1 12.097 1.91796 7.81524 
564 1 15.1307 1.29726 45.7559 
3538 1 13.8255 41.1507 4.46818 
2329 1 15.4588 37.5563 6.42858 
2010 1 -16.9594 17.1257 -21.8525 
3284 1 13.5504 38.3314 6.18205 
2239 1 16.24 40.2967 5.43041 
364 1 -19.0834 2.37276 5.86184 
985 1 22.3285 42.8928 3.1904 
1745 1 24.9162 40.0234 6.63399 
2241 1 -16.7705 1.16083 -31.9091 
1580 1 25.1524 0.748255 4.47212 
3784 1 24.3463 43.0841 40.5291 
1759 1 26.8972 0.309409 44.9733 
1257 1 26.9366 4.13878 2.28647 
2043 1 -8.12308 38.9091 2.84111 
2697 1 -10.6983 38.937 3.89709 
3175 1 29.2647 40.4566 3.93365 
1890 1 -8.36298 3.9198 4.79366 
2896 1 -3.03341 40.0539 1.00011 
3039 1 32.0579 38.2246 42.8888 
2599 1 35.2493 42.1728 1.28536 
260 1 33.1904 3.28015 4.72974 
734 1 39.5102 38.5482 3.25193 
889 1 1.68343 2.83521 2.30707 
2531 1 -2.83467 40.1407 4.56618 
2710 1 36.1663 44.9955 5.13414 
613 1 2.26778 4.93094 3.40452 
1961 1 1.37046 41.8329 43.7109 
1343 1 40.5069 42.4491 46.754 
1885 1 3.10049 7.81038 43.4233 
387 1 40.137 0.531914 5.54869 
2215 1 4.15522 0.420894 5.96675 
2168 1 7.50425 41.4858 4.22917 
524 1 6.48176 4.28398 5.82633 
3835 1 49.0863 41.4956 43.644 
874 1 46.1925 2.31823 6.41345 
679 1 48.4191 2.91128 7.80272 
2987 1 10.3203 43.6249 4.22254 
2328 1 12.7703 44.9041 7.47664 
3240 1 12.3024 42.6806 44.3172 
2016 1 16.6302 4.4121 9.50716 
2982 1 12.2946 46.9488 6.02622 
728 1 14.1512 9.69883 6.41832 
2510 1 14.6401 42.6325 1.555 
2639 1 57.2398 45.203 4.83725 
729 1 14.4571 5.42245 5.54603 
1501 1 21.5911 3.62625 45.4389 
1984 1 18.4461 9.22083 42.8647 
809 1 -19.0119 4.83653 5.69969 
2227 1 20.1117 7.69056 6.96218 
3822 1 15.806 43.7309 41.3761 
435 1 24.0733 5.23536 4.5759 
1463 1 26.1637 4.11656 46.1672 
115 1 27.4595 4.98197 4.68671 
1764 1 -12.9115 2.86794 42.7354 
283 1 -10.2314 6.08023 2.70517 
2917 1 25.5675 6.65012 6.87576 
3785 1 31.4068 40.9914 41.2475 
951 1 32.744 3.26414 0.738733 
723 1 -7.75259 5.36619 3.17908 
511 1 34.1045 5.34219 6.17137 
171 1 -0.040835 3.12328 -31.3762 
150 1 36.6906 3.391 2.73417 
3292 1 -0.569137 43.9675 45.0008 
3409 1 2.4126 5.38544 44.1377 
2453 1 -1.29964 8.43967 6.55878 
3741 1 37.7269 45.8657 8.95401 
3931 1 3.13524 49.1836 42.9183 
545 1 41.4148 7.2925 2.63196 
23 1 4.25199 6.26389 7.6665 
1441 1 1.16637 6.90897 6.7511 
3320 1 43.0403 50.2927 5.84733 
237 1 45.2745 10.9722 4.50882 
3634 1 47.3064 4.43674 44.6204 
3224 1 9.06813 5.34959 47.3983 
2356 1 44.2172 47.5952 5.18553 
1010 1 10.7495 5.44362 7.31773 
12 1 12.3766 8.64435 3.21037 
2337 1 5.61231 51.3399 7.77845 
1727 1 9.21882 10.1052 42.0779 
581 1 14.6251 9.62307 4.01625 
2003 1 9.10169 7.1062 6.67085 
2396 1 15.6963 46.1486 5.62259 
2845 1 15.3959 14.6099 1.84382 
36 1 58.713 10.822 -32.3831 
469 1 56.8264 11.7556 5.10127 
1965 1 -16.0543 7.06848 46.2057 
872 1 21.1418 10.6632 3.70737 
3989 1 24.012 45.9799 43.8376 
1947 1 24.7199 8.79684 42.2688 
356 1 23.7012 10.9424 3.15112 
238 1 28.4906 8.29345 6.24195 
964 1 -9.80726 7.97207 4.02363 
2977 1 26.1269 45.3986 4.24228 
720 1 30.5433 9.51008 4.70841 
330 1 -8.51109 6.61424 5.93701 
1025 1 29.6656 7.28999 1.28583 
3155 1 32.8835 47.9711 5.30411 
1720 1 33.2619 9.57076 46.7396 
2590 1 32.2776 45.265 6.11793 
2818 1 32.5941 5.61374 39.9468 
1444 1 -7.13015 7.66988 42.0443 
137 1 -5.08224 6.15908 3.51014 
1877 1 35.5963 8.04319 46.8287 
1113 1 34.3115 7.60274 6.40415 
663 1 0.83823 11.2676 2.97111 
1667 1 37.8994 12.784 10.3513 
542 1 0.065552 13.5887 2.32554 
1059 1 3.00226 10.0712 1.93499 
959 1 46.5008 17.9495 3.64735 
1333 1 3.12463 12.9896 3.96843 
1216 1 3.86414 13.9058 6.25654 
3269 1 46.0894 51.4154 40.1903 
1090 1 7.9687 8.5903 4.66318 
264 1 7.42956 13.0371 4.28698 
662 1 47.3697 10.8154 1.24437 
3207 1 6.10618 14.9547 39.842 
955 1 46.5997 15.3816 2.64192 
1008 1 11.0114 10.6675 40.9805 
1070 1 50.4363 12.5932 2.95633 
657 1 14.235 12.2165 4.30335 
932 1 7.37773 8.76215 45.668 
810 1 13.4334 11.7317 0.700594 
2157 1 10.2286 12.5009 5.49257 
33 1 54.6974 10.9474 5.2688 
2225 1 17.6807 13.8213 0.814198 
1224 1 20.2521 12.8769 42.7226 
2805 1 -2.37467 38.1026 15.4601 
2026 1 19.2767 15.3862 2.78431 
1336 1 25.0789 10.5623 5.2982 
553 1 21.6406 9.39393 7.84386 
2039 1 22.647 9.56221 5.62615 
2381 1 22.3839 12.6734 5.83894 
1689 1 29.8639 -28.7547 40.6935 
3815 1 25.9315 8.8354 44.7441 
2368 1 -11.0362 9.98186 5.15767 
3018 1 23.6693 10.8566 7.72517 
828 1 26.0425 11.1523 3.35953 
2714 1 32.2612 10.5316 3.43503 
3149 1 28.5335 12.9301 41.1366 
18 1 31.43 10.5854 0.303115 
2716 1 29.6418 50.3503 4.44873 
1663 1 31.8453 11.9157 44.0645 
2535 1 35.3977 9.78667 4.9519 
252 1 -3.23908 10.0983 7.41884 
528 1 -2.1018 14.0811 2.49411 
2156 1 36.6395 12.5758 3.97394 
2848 1 -0.697965 10.7434 4.79545 
2789 1 34.3758 50.4867 5.40224 
2426 1 5.26576 14.0962 3.44828 
3401 1 2.53035 53.6491 43.0405 
3492 1 -20.0107 38.2743 13.9226 
1367 1 1.42293 15.0146 45.4157 
599 1 37.9051 17.3882 0.583652 
1899 1 4.4468 16.3215 41.5256 
848 1 6.35663 17.2407 1.86062 
2387 1 43.8227 49.6767 2.54994 
395 1 44.646 16.7581 4.67416 
712 1 19.6563 17.0931 9.53004 
1706 1 49.4716 12.1692 38.8549 
108 1 10.4992 15.2322 5.2429 
3756 1 8.27385 15.6459 44.5715 
1256 1 8.39027 -27.3263 6.06327 
2619 1 20.9084 10.5667 17.1809 
530 1 17.5422 11.1361 0.28304 
762 1 10.7952 16.2512 3.13089 
2946 1 16.3492 16.0773 7.30352 
397 1 52.3155 16.8963 2.62088 
3254 1 17.0414 13.7886 3.51491 
386 1 15.3102 16.8952 4.36102 
3044 1 -8.83294 15.928 15.8918 
3823 1 20.1867 12.763 40.3175 
358 1 17.2499 16.0932 2.52801 
3874 1 19.4105 4.43338 38.7082 
2454 1 -12.7661 12.3097 6.90318 
1935 1 9.8797 12.5965 16.6282 
2209 1 25.5378 0.0813649 15.4437 
1013 1 30.8217 -22.4261 5.69036 
2060 1 18.181 39.1783 11.8739 
1155 1 29.7954 17.1485 41.6328 
3872 1 29.3637 15.0642 42.4033 
107 1 30.2717 14.25 1.917 
2351 1 -5.72232 14.257 4.9981 
2451 1 -6.58861 13.3773 7.51933 
1679 1 19.5469 15.493 16.6959 
1582 1 -3.85149 15.3216 41.5434 
668 1 37.454 16.073 2.35126 
2753 1 38.0444 53.4782 5.39304 
3203 1 14.8164 8.43464 17.6148 
1403 1 -0.90995 0.675796 6.51614 
947 1 1.32231 1.28022 -0.592972 
3632 1 33.0648 4.04609 17.8196 
1037 1 42.412 -0.692327 16.5236 
1999 1 20.6711 38.7908 42.7811 
759 1 41.7245 2.08263 9.97941 
2923 1 3.64641 37.9519 13.3507 
1341 1 1.52321 0.337353 48.5033 
3437 1 24.5465 17.4549 8.89475 
170 1 6.56071 -0.526288 -29.3599 
2071 1 10.1422 0.926976 6.60345 
3751 1 18.2017 8.32098 38.806 
1014 1 -2.1385 10.1953 18.0743 
623 1 38.4697 -23.0135 14.6626 
743 1 26.4921 7.20213 17.8422 
2390 1 17.6223 40.4644 7.31406 
1731 1 13.4194 -0.00474096 47.7869 
821 1 37.1043 10.1064 38.5484 
185 1 18.9242 3.70071 8.38944 
3305 1 30.23 5.98248 15.8816 
402 1 -15.5932 2.02054 8.30585 
531 1 23.8619 0.32178 10.1965 
3924 1 -18.1849 40.3584 46.7606 
63 1 21.4747 1.60304 10.9693 
1285 1 20.9569 4.78529 8.83273 
2597 1 23.8463 41.9058 6.33184 
695 1 25.126 2.11004 9.44207 
3200 1 26.9937 41.3258 44.3084 
2522 1 -8.71003 38.5021 -29.8893 
1473 1 59.2595 5.11847 17.3727 
1747 1 31.3167 1.71502 44.2558 
3909 1 29.2415 38.2239 43.9726 
442 1 15.5596 -0.748901 8.75428 
1164 1 -15.0812 15.8305 -0.268845 
3201 1 33.4639 38.6681 6.45643 
2591 1 32.2274 39.2949 8.52036 
3471 1 26.3084 16.9832 42.5147 
426 1 36.7521 3.6406 5.48102 
1222 1 37.7615 1.93744 4.56027 
1982 1 9.3196 -0.858397 38.8621 
184 1 37.9196 40.6366 9.24782 
20 1 1.29435 1.25561 7.80233 
2528 1 -0.785041 39.3821 12.4851 
1868 1 25.3184 -1.13822 41.3517 
3158 1 43.9575 40.4548 48.0327 
78 1 39.2093 2.12958 11.2718 
3876 1 44.2797 8.09736 47.4168 
1612 1 -2.24762 0.718677 48.6162 
3448 1 3.06585 44.1961 12.5919 
164 1 3.4958 1.9195 7.63988 
873 1 45.7818 3.63344 8.35776 
595 1 46.4781 3.7606 10.7677 
481 1 5.08164 3.966 8.44396 
1574 1 13.9444 3.43006 46.0851 
2501 1 8.36867 5.48317 12.6346 
3281 1 10.3293 39.2674 9.32308 
189 1 10.3253 2.90933 9.9708 
3821 1 8.62518 7.28919 8.73198 
3120 1 54.5944 43.0321 7.06982 
2773 1 11.5336 45.1034 9.59624 
3979 1 15.2353 42.6669 11.4748 
112 1 14.4396 5.34876 8.93882 
730 1 17.5066 3.86323 5.2132 
2271 1 18.5508 5.87649 9.92555 
307 1 19.2999 3.62775 10.7472 
1917 1 56.0591 4.73766 12.1581 
615 1 19.664 4.43496 13.1007 
3752 1 20.5163 46.0172 47.8503 
1861 1 22.6687 3.3495 48.3608 
1323 1 -20.2366 5.88139 7.49914 
1539 1 22.223 7.93229 50.8255 
1160 1 27.4069 5.72099 9.08379 
3698 1 23.7052 5.00169 8.29807 
3671 1 28.4613 4.65995 45.273 
2970 1 29.0312 48.7109 8.01914 
1617 1 28.0308 2.97154 8.25295 
1260 1 -6.54318 3.33589 9.29873 
3020 1 30.45 2.41623 46.4453 
223 1 33.9564 3.18053 7.072 
1302 1 32.7462 5.91003 10.5449 
1099 1 31.3592 4.60402 6.76286 
1883 1 -4.22241 0.0461897 47.4884 
3790 1 36.1073 44.4036 46.0648 
876 1 36.3383 3.69074 8.76611 
2511 1 35.5225 2.63615 12.1052 
627 1 -4.03153 2.68392 9.84411 
97 1 0.131503 5.16954 8.95044 
861 1 39.1019 6.29771 11.6622 
3509 1 40.3578 43.1051 49.0601 
1515 1 37.9667 3.92571 11.852 
2521 1 -0.571 44.0973 15.4628 
1867 1 39.1317 8.97154 46.1427 
3162 1 3.0508 47.5286 7.27752 
1669 1 38.7979 12.401 45.8745 
893 1 11.083 2.57049 12.3533 
643 1 6.60275 5.36448 9.86865 
38 1 43.3362 10.3231 7.66881 
2886 1 11.6912 46.9619 8.21621 
1769 1 7.15162 7.59044 49.7369 
3042 1 -29.6293 48.5065 8.42539 
1717 1 54.8841 6.97921 46.4757 
2251 1 13.8824 9.83044 9.46051 
2443 1 11.9512 10.7051 5.06668 
2978 1 14.2871 46.098 8.88684 
1898 1 19.3756 7.24511 53.3669 
1126 1 17.6046 9.04642 6.80449 
975 1 19.5125 10.8763 8.85289 
1418 1 17.9343 8.23725 47.923 
965 1 -16.877 10.0513 9.97949 
243 1 22.7168 7.4206 10.3363 
3921 1 -17.0311 5.00418 49.3766 
2495 1 24.4466 46.6828 8.27075 
2425 1 26.2699 10.3265 7.7897 
1661 1 30.915 11.1182 45.8472 
1275 1 24.0108 9.0567 11.5542 
212 1 29.6871 7.57183 8.2795 
1581 1 30.0327 9.33833 9.96049 
28 1 31.9698 10.9926 9.99756 
3825 1 34.8911 6.36228 48.2194 
1118 1 33.6752 4.99176 47.0764 
656 1 32.3777 7.07625 8.68047 
1187 1 32.1088 8.64837 10.6712 
2169 1 -5.46968 46.6412 -25.4435 
1751 1 34.5709 9.5175 49.2292 
208 1 -1.57523 5.59485 10.7656 
2565 1 -2.79599 46.111 11.7313 
2030 1 37.0449 9.94342 10.5754 
813 1 -1.14392 10.5282 8.15808 
2134 1 6.04308 52.7843 5.82182 
453 1 40.644 11.4734 6.26214 
1060 1 3.20733 9.49948 9.67575 
1693 1 6.81736 14.8947 9.65907 
2942 1 8.59153 16.1503 8.24173 
199 1 41.3981 11.9108 8.41584 
1601 1 6.4835 12.0877 48.3962 
547 1 8.27505 13.4998 11.9176 
628 1 7.80677 17.4831 10.295 
2972 1 8.55241 51.0712 9.43926 
3132 1 8.90976 10.7635 10.6005 
2172 1 10.2575 9.57475 -31.8322 
2622 1 10.2717 11.9131 7.72752 
3261 1 13.4473 12.3382 12.6934 
379 1 12.5482 11.7269 -31.2677 
2468 1 15.8284 9.32322 8.10921 
2810 1 18.2976 13.4419 10.1463 
292 1 -18.4602 12.7384 7.46089 
2986 1 17.4427 50.0681 9.35388 
529 1 17.6209 16.0986 9.63822 
2278 1 17.9894 12.0025 7.33154 
490 1 20.3188 14.8441 9.56878 
2411 1 23.3616 12.6587 10.3663 
2377 1 25.1441 48.4918 9.8231 
2475 1 27.8398 12.0134 7.7819 
365 1 -10.7055 14.3436 11.4552 
251 1 -8.083 12.9149 9.21679 
1966 1 -11.1921 15.0129 43.7041 
2727 1 -8.54146 11.3435 11.3506 
1770 1 34.5686 13.842 45.9016 
3141 1 31.0093 8.83807 6.79844 
3976 1 -4.90975 54.6307 47.343 
2117 1 33.6167 50.2391 7.58495 
3949 1 35.6982 15.6197 47.1563 
3916 1 35.9632 50.6312 50.0786 
667 1 36.835 12.9483 6.63309 
1247 1 -2.46947 12.1869 8.81173 
1662 1 0.868585 -25.5901 43.3193 
204 1 3.21031 14.4034 8.46903 
3505 1 -1.47114 15.4759 10.8856 
2507 1 10.1214 16.3805 16.055 
2953 1 37.781 14.3788 46.8575 
3612 1 6.58369 16.9354 45.926 
1931 1 5.97625 13.7451 49.9396 
1079 1 42.7002 16.2784 6.99831 
3867 1 12.258 14.1295 1.14908 
3528 1 -6.13562 56.0452 50.3382 
3265 1 49.2873 17.1359 8.5191 
683 1 -7.06507 0.154855 11.2562 
772 1 12.696 16.2058 5.00498 
1263 1 8.37321 13.507 7.16838 
2140 1 12.4 13.9741 6.02197 
215 1 14.8106 14.51 8.00801 
2767 1 15.9764 13.8891 10.1377 
1855 1 16.5502 14.6169 50.7503 
393 1 54.3695 12.0273 11.5333 
3117 1 19.7841 17.0407 14.5517 
2551 1 43.0078 39.1496 -1.0003 
3469 1 15.0456 11.5582 8.28249 
408 1 16.833 13.696 5.84374 
249 1 22.079 14.4282 7.36154 
2480 1 27.2949 9.42812 17.6926 
1598 1 18.2541 14.6861 46.3968 
2778 1 22.1481 12.3376 8.58543 
674 1 58.1527 16.6045 7.16131 
1636 1 23.8621 15.2784 10.0368 
3151 1 25.8327 52.9367 9.80296 
1150 1 24.2253 13.448 8.34426 
3839 1 47.8317 37.4312 41.5988 
3954 1 30.8302 15.7366 47.2829 
2437 1 29.2673 52.1545 5.9776 
315 1 26.4401 14.422 7.33646 
3486 1 -10.1588 52.8822 9.01692 
2964 1 -9.55881 54.0695 7.29945 
1426 1 39.0092 5.95253 37.914 
1120 1 35.5571 14.3547 5.43697 
2207 1 -5.58114 17.5317 7.11101 
1447 1 32.5683 -25.0709 17.9037 
2555 1 40.8131 38.6362 1.14874 
314 1 74.3104 16.7094 6.39011 
3764 1 -0.547404 55.2383 45.6423 
2343 1 -0.724563 17.2341 12.5024 
937 1 35.5614 17.8878 9.43965 
3180 1 -2.40029 16.7989 3.91188 
95 1 37.7022 1.76912 17.6025 
269 1 43.5292 14.0868 17.8393 
2103 1 39.1561 40.8091 14.1618 
3444 1 3.03523 5.52301 17.9285 
118 1 39.75 0.136906 12.4472 
1650 1 3.6095 2.82685 50.8272 
1507 1 3.10056 3.85839 52.7565 
3178 1 6.60476 39.7858 11.5448 
1807 1 8.12749 -0.185061 12.8179 
1167 1 7.83423 1.47516 47.6318 
169 1 7.05639 40.4365 14.6049 
1891 1 8.41456 -0.621979 48.9647 
3958 1 51.1078 40.2529 48.9221 
2086 1 6.56718 37.8265 5.97736 
2602 1 11.3841 38.7458 11.7891 
3066 1 53.2938 40.6258 11.9913 
50 1 -4.59426 -0.314519 2.41916 
337 1 19.7716 17.3493 1.34274 
765 1 13.0222 -0.697585 15.1173 
3251 1 14.5644 39.9552 16.0142 
1692 1 20.5187 1.25692 15.3644 
2637 1 15.0049 2.71667 9.73439 
2940 1 21.0335 37.6633 11.6404 
1866 1 31.4542 6.32914 17.7994 
3608 1 -16.6112 38.9334 13.6057 
3829 1 17.0329 7.40795 55.195 
1173 1 24.1147 3.79363 14.2229 
603 1 -13.9514 2.91593 12.03 
2750 1 23.8325 43.9299 10.8849 
1924 1 25.4949 -0.184927 11.7454 
696 1 25.7324 4.33246 9.99497 
2937 1 26.863 2.85711 13.2213 
2058 1 23.3602 42.6636 -0.70307 
1801 1 -10.6271 2.71576 15.4454 
467 1 28.5513 1.64588 12.7233 
2262 1 0.160243 17.4006 4.65969 
1726 1 1.25484 -20.4803 40.7655 
1041 1 -6.1689 3.09054 15.5975 
2496 1 14.0478 41.6908 -0.705968 
2407 1 21.2674 16.4553 -0.798028 
1261 1 35.6345 0.0540825 13.3174 
261 1 35.4583 2.92459 16.631 
2994 1 38.0619 38.3764 8.8329 
256 1 -0.860095 3.17544 15.7423 
670 1 -3.04242 4.96832 13.8223 
3355 1 35.5832 44.3078 16.1679 
2526 1 42.0399 45.6698 10.3777 
3594 1 38.602 53.7656 17.7674 
1963 1 1.52531 4.91875 54.8951 
1250 1 0.827684 4.74527 13.7514 
2112 1 9.37893 39.8065 11.4382 
2920 1 48.4588 39.7694 14.1789 
1103 1 6.61974 4.0217 51.0971 
2663 1 9.31387 8.17095 12.9258 
1721 1 13.0298 4.02662 12.9129 
479 1 50.9449 4.21073 10.4121 
3385 1 10.7209 44.9093 14.4972 
1773 1 20.6792 8.11954 55.8219 
736 1 13.7778 6.13205 15.6088 
1570 1 20.0134 2.22368 13.06 
99 1 17.0842 2.57653 11.4026 
988 1 20.2192 6.87102 11.5607 
288 1 22.1274 3.40688 12.6596 
3710 1 19.4631 41.7954 16.2582 
159 1 62.9524 7.54258 14.1957 
1274 1 29.7022 5.36841 8.76444 
2592 1 27.8977 48.3247 10.6624 
2431 1 21.6671 7.56601 14.6513 
991 1 29.9165 38.0775 13.4055 
3865 1 27.9892 42.4169 49.7108 
2183 1 26.7228 40.5733 11.1973 
1235 1 30.9424 4.54993 11.5623 
2771 1 28.3377 44.5657 12.5159 
2738 1 29.9627 2.27112 10.1639 
1137 1 26.824 8.24621 8.62688 
1431 1 30.5437 2.52658 13.3805 
2596 1 28.824 45.7337 14.2427 
1217 1 33.8727 0.693535 11.3823 
3660 1 34.6596 46.3623 15.3764 
800 1 34.4874 43.0966 11.2583 
1252 1 -3.23828 1.44511 7.1411 
3842 1 1.33369 51.2242 12.3549 
2556 1 38.4165 47.0531 12.2667 
127 1 3.5911 8.816 12.2967 
570 1 1.2098 45.8822 13.5388 
2330 1 2.09309 6.40278 8.7128 
3040 1 43.0485 45.6407 13.57 
583 1 5.15259 10.1762 11.0905 
1896 1 5.61991 9.0846 51.7991 
58 1 49.3696 10.0578 11.947 
1201 1 5.4911 5.96668 11.8678 
936 1 10.2847 4.70816 11.4016 
312 1 11.5265 10.7129 9.53766 
2458 1 10.0441 47.1191 10.1084 
891 1 10.889 6.95882 11.7189 
2837 1 51.9626 6.13626 11.4452 
1156 1 50.587 7.99011 15.9615 
1414 1 16.104 6.59659 10.4526 
3871 1 13.1526 7.70375 52.2185 
1671 1 16.547 10.5545 51.9762 
2503 1 20.7836 44.0418 14.6646 
203 1 16.1319 9.70699 10.1701 
3037 1 22.7579 5.70637 13.1985 
1929 1 18.447 10.4253 49.6684 
3574 1 19.4728 47.6878 15.6554 
3565 1 19.4204 49.2508 13.7223 
3805 1 -14.0088 17.7322 37.5726 
502 1 21.7837 11.1009 12.2171 
1737 1 23.2272 9.71401 14.1414 
655 1 25.5761 9.29916 16.1719 
64 1 25.651 6.60772 10.2867 
3904 1 26.4707 46.6311 51.4001 
3034 1 29.7895 9.53857 15.6222 
155 1 24.7644 5.57882 15.3878 
586 1 30.1127 4.95241 -24.6513 
777 1 -8.03584 7.06804 11.2886 
2776 1 -7.6325 45.9262 14.0345 
3558 1 33.1923 49.4717 12.0916 
1833 1 36.7925 7.15768 14.2839 
351 1 32.5637 2.47731 11.7234 
3599 1 37.8895 49.471 51.341 
816 1 1.722 10.1068 12.4891 
630 1 37.0035 8.34965 16.4645 
1549 1 37.4951 11.081 15.8888 
3290 1 1.47199 46.6119 10.4389 
272 1 41.6917 12.0332 10.9849 
3105 1 6.49846 11.5186 12.4397 
2428 1 6.99972 48.2933 -28.5421 
573 1 11.2073 12.631 11.1526 
1138 1 11.1247 53.1702 8.1178 
894 1 14.0535 14.999 11.7732 
2508 1 19.1011 14.6474 12.2622 
2069 1 14.3018 10.0081 12.1438 
1467 1 18.1324 12.4424 12.5163 
658 1 22.6039 13.3788 12.3159 
3473 1 23.3814 12.9069 52.8974 
389 1 20.4206 12.8948 10.9884 
2536 1 23.7532 15.5806 12.6755 
1112 1 24.4379 11.4376 11.9656 
3440 1 26.0216 12.2796 48.7021 
2553 1 26.036 12.36 14.4101 
349 1 25.2843 9.88789 14.0497 
103 1 26.3658 14.2767 15.8203 
2821 1 27.3259 11.9272 12.3445 
877 1 30.9083 11.5021 14.237 
2393 1 28.6295 47.8253 12.8494 
868 1 -9.98706 12.2742 14.9078 
339 1 -7.55781 9.50555 12.8165 
1080 1 35.1777 12.7303 17.0881 
1281 1 -4.33111 11.8116 9.88545 
1084 1 -3.61918 14.0443 10.6148 
3540 1 -6.07451 52.6165 10.1704 
2957 1 35.8564 48.0854 12.8009 
558 1 32.9952 9.96559 14.4842 
303 1 -4.56555 12.8752 12.9939 
1719 1 36.1296 12.8632 14.3398 
2545 1 1.67323 16.1898 12.2452 
301 1 2.37254 16.8873 10.3477 
2499 1 -2.40759 15.5214 13.459 
2741 1 0.737846 53.318 10.4329 
2421 1 12.2346 37.8543 3.92133 
649 1 41.5214 3.23398 -21.6079 
885 1 -0.967279 13.9382 12.409 
2761 1 -7.58909 52.6013 17.0146 
2307 1 39.3708 10.4503 9.64301 
452 1 4.68332 15.7749 9.39673 
1680 1 4.50714 15.3936 50.7332 
1448 1 7.57342 15.6005 49.9735 
2888 1 2.90772 14.0909 10.6023 
352 1 50.3732 15.8432 10.5625 
3227 1 9.32127 14.5658 9.82794 
1045 1 13.9012 12.0042 10.2515 
1893 1 10.8515 -22.0479 52.2444 
2529 1 11.7383 14.3094 12.5348 
3136 1 -21.2933 4.27543 1.07145 
2224 1 15.9815 16.8514 11.5061 
3232 1 18.73 17.2746 12.3075 
3806 1 14.5445 55.1304 13.6361 
2541 1 -1.01968 39.0981 -0.763776 
1098 1 16.6449 15.9864 16.3305 
3776 1 20.9415 15.9499 11.9494 
1754 1 21.8921 16.5166 47.4581 
3860 1 8.63534 17.7082 51.4364 
2857 1 25.7527 13.689 12.2562 
1078 1 27.3388 16.6786 9.13292 
760 1 25.4964 16.9858 11.4324 
574 1 9.57915 46.1462 -0.548551 
290 1 -3.36316 -20.66 11.787 
2958 1 -8.59159 52.4551 11.3621 
976 1 -8.41357 15.7342 12.9848 
1590 1 32.2581 14.5562 51.3643 
1396 1 30.632 13.8926 52.9022 
526 1 6.34261 17.5654 17.8624 
3832 1 34.1491 15.7518 50.4489 
1 1 -2.12089 15.9937 16.1594 
2048 1 0.525355 48.434 17.4816 
647 1 2.59418 1.34385 15.1936 
2310 1 38.6301 38.533 14.628 
755 1 22.9921 17.2433 10.8016 
3005 1 15.234 -0.0179357 10.9712 
3315 1 5.82517 38.2892 15.0587 
795 1 47.1232 2.96826 12.9782 
1652 1 5.16513 2.0278 54.4501 
1498 1 28.4746 0.45236 37.5441 
1592 1 27.0524 13.932 39.2433 
383 1 33.5521 16.9271 4.71748 
3755 1 24.1734 38.2339 39.4494 
2694 1 -6.59493 10.9409 17.7418 
1775 1 5.24594 1.57366 13.4534 
702 1 35.8746 8.09775 37.6929 
3316 1 49.1677 42.838 13.9091 
2735 1 12.0973 39.6219 55.5506 
3059 1 8.12826 14.2648 15.7982 
359 1 23.3026 -0.262392 5.43071 
3049 1 28.6249 7.81116 17.0484 
549 1 21.9478 5.67835 38.7278 
3451 1 -6.23676 54.5687 16.3344 
3122 1 -23.6408 38.4032 -0.323541 
3360 1 24.6217 13.8237 17.2652 
2174 1 17.8118 41.3383 14.3248 
419 1 9.92162 13.9717 1.35665 
2124 1 6.77065 37.9209 3.18368 
804 1 -16.663 9.86632 -0.540061 
783 1 23.6752 0.885857 16.9579 
224 1 21.9212 3.12075 15.1669 
1276 1 21.0287 13.3722 16.5041 
756 1 24.3685 39.6541 13.9187 
2830 1 18.6537 37.4382 4.13249 
1990 1 24.1908 16.5973 55.2788 
3680 1 26.8653 16.8062 37.7666 
3189 1 27.809 38.5737 16.7088 
1057 1 29.9036 3.25233 15.4771 
834 1 44.7976 0.108784 17.5961 
2128 1 -6.71398 37.7349 -22.9802 
226 1 47.9301 6.87361 3.07089 
2618 1 -0.791142 4.42254 17.8847 
556 1 -4.61011 2.84294 13.7027 
3129 1 3.25981 6.26006 15.4562 
2341 1 5.32487 3.33425 17.8765 
3530 1 10.9451 40.9341 15.7016 
3701 1 7.05137 6.93081 13.7876 
3475 1 43.9493 4.77203 15.2989 
1459 1 22.5573 12.8875 40.3647 
3152 1 10.7436 43.4293 54.8709 
1492 1 8.45185 5.30789 15.3027 
3498 1 12.4796 40.2016 14.3636 
2747 1 10.1958 7.04849 17.8267 
156 1 54.0114 6.07701 13.2625 
1860 1 13.8123 -0.55452 40.2628 
1236 1 53.6715 46.431 14.9633 
2554 1 18.0668 8.75932 13.9847 
2424 1 15.4915 2.84012 13.9623 
3555 1 18.1658 5.23438 16.6123 
1284 1 -25.6647 3.7303 16.3725 
910 1 17.6362 4.88984 14.4544 
3576 1 22.6122 44.3733 54.8106 
2760 1 21.2545 2.26399 17.2177 
3126 1 23.2405 37.4308 12.2285 
1195 1 34.3662 37.6057 16.7067 
1338 1 23.944 3.38543 17.3233 
3903 1 18.1071 38.9256 47.7918 
2159 1 56.9265 14.8347 -23.5223 
909 1 16.454 1.1275 18.0423 
229 1 25.8199 2.92433 16.023 
946 1 24.1655 7.19455 17.6982 
2611 1 28.6106 5.1102 16.9555 
1884 1 -10.6418 5.02474 53.017 
2862 1 11.9534 15.9682 17.5919 
462 1 27.7199 -21.8089 16.7257 
2196 1 29.6836 39.2936 15.4343 
3854 1 -10.9589 38.8677 47.8038 
2514 1 16.7367 16.7999 13.9796 
838 1 33.2825 5.67099 15.7614 
1211 1 -6.09898 5.272 13.5314 
693 1 1.09193 0.0991852 16.8404 
1643 1 -0.305894 9.17884 14.5196 
2656 1 26.0427 15.9141 13.6145 
680 1 41.561 9.34007 17.3976 
94 1 1.18632 -24.5717 0.437317 
2570 1 34.6341 17.0146 0.956754 
2693 1 4.88214 11.145 16.7512 
1605 1 5.37269 17.5968 51.6494 
935 1 6.31114 8.59585 15.455 
1741 1 7.6525 9.63847 13.9472 
406 1 10.0486 9.626 17.5433 
3940 1 9.31327 8.29879 53.9953 
3855 1 11.9348 10.5747 16.276 
3583 1 14.5858 49.429 17.3045 
778 1 18.1291 7.19824 12.6885 
2902 1 -1.59848 41.5495 37.6758 
1342 1 16.677 9.79847 16.7295 
1385 1 16.0357 8.24151 37.9624 
3625 1 18.1585 16.0084 43.7614 
1913 1 40.0671 12.8635 56.0472 
439 1 52.1079 -24.094 3.52846 
1971 1 2.41913 17.0601 43.8977 
1814 1 24.3638 11.2575 15.8547 
1107 1 25.8662 5.03041 12.6425 
491 1 -9.88107 17.6997 5.29874 
940 1 38.7723 8.38272 37.7812 
119 1 26.3871 7.15712 15.6822 
1442 1 9.39901 4.27967 38.0044 
763 1 3.71382 13.6735 37.8135 
3399 1 33.0816 50.6043 15.9903 
2749 1 15.8004 44.0761 16.8042 
999 1 29.6109 17.9818 13.8408 
2658 1 -6.52695 8.43266 16.2213 
732 1 3.5076 16.7765 17.3659 
805 1 -3.27528 10.0368 15.0126 
2671 1 15.1403 17.7456 6.45099 
1907 1 14.7114 6.05175 38.0271 
172 1 1.33013 10.8364 14.7604 
1360 1 42.6574 12.8731 13.0555 
1736 1 -10.1499 9.61686 38.8952 
916 1 4.63282 10.9197 14.3968 
684 1 0.705004 12.9756 14.8762 
3754 1 41.9013 47.2557 53.5146 
740 1 8.90437 50.1533 13.1259 
2122 1 7.25444 50.4441 15.7195 
1887 1 10.5873 13.9152 53.4125 
2668 1 9.44936 10.6161 15.2955 
1411 1 50.942 8.51818 49.128 
2498 1 12.707 12.6157 15.0951 
1053 1 12.7164 -28.4456 13.9913 
3212 1 14.1264 9.6895 15.6244 
1412 1 14.485 14.273 14.1131 