ITEM: TIMESTEP
10000
ITEM: NUMBER OF ATOMS
4000
ITEM: BOX BOUNDS pp pp pp
-1.1488057304450940e+00 3.7298805730445011e+01
-1.1488057304450940e+00 3.7298805730445011e+01
-1.1488057304450940e+00 3.7298805730445011e+01
ITEM: ATOMS id type x y z 
48 1 1.48759 -0.0466037 -0.921377 
538 1 13.5088 13.7895 -1.12108 
2764 1 26.5067 -0.988967 9.47392 
1278 1 24.7041 4.99382 16.3007 
1612 1 5.7737 1.51524 3.1182 
3703 1 31.2443 16.1055 2.74143 
765 1 2.76538 15.3628 17.0393 
160 1 33.849 17.5129 2.84519 
1805 1 9.65285 1.90374 2.4771 
1010 1 3.66188 0.292187 16.5515 
1851 1 11.9173 1.15399 1.32354 
503 1 19.1714 1.74435 1.48569 
521 1 5.01981 10.035 0.87426 
2409 1 7.9567 17.8574 8.08001 
2001 1 3.48079 16.7389 0.301186 
259 1 18.5681 1.5112 4.27435 
392 1 0.739946 16.972 3.67157 
428 1 17.2646 0.214395 3.04998 
612 1 18.7698 2.9653 -0.606195 
131 1 21.6507 2.51622 -0.263408 
636 1 33.1973 0.055498 14.7087 
2663 1 23.4629 16.6007 15.178 
1824 1 23.7897 0.679332 -0.220541 
748 1 26.3134 16.8318 13.3014 
803 1 30.417 -1.07962 13.5459 
3815 1 18.9318 17.2551 5.6263 
1257 1 12.3923 0.755114 15.6173 
2819 1 17.5319 6.0856 17.7544 
1593 1 26.39 7.22654 -0.9979 
2213 1 20.7862 17.2659 9.88954 
1826 1 30.9405 0.496583 0.503739 
1900 1 10.1674 5.24875 -0.986261 
2915 1 25.9963 17.3917 15.9235 
1204 1 34.4168 0.341599 0.400486 
116 1 31.3068 7.62188 0.378947 
829 1 18.8642 -1.08651 7.39289 
1 1 37.1952 0.574578 0.246962 
1880 1 0.652462 3.58441 0.144616 
472 1 31.1534 -0.517089 8.6896 
2227 1 16.4493 17.0428 11.749 
127 1 1.95856 6.61781 1.99059 
443 1 3.13165 2.94896 1.68412 
1582 1 11.636 16.0892 0.168124 
566 1 12.4769 16.2473 4.09283 
52 1 7.51989 3.01635 2.8195 
289 1 5.38241 4.28195 1.4687 
1843 1 35.5927 0.234447 3.1175 
1948 1 14.2158 16.9573 -0.409703 
2133 1 16.751 0.514214 0.713346 
394 1 31.3899 14.5913 0.811159 
364 1 3.358 17.5001 2.47792 
154 1 34.3715 16.9108 -1.08725 
255 1 16.3201 5.36504 6.48804 
412 1 17.1318 4.12639 1.83643 
1051 1 2.63152 9.73963 17.4137 
701 1 17.025 3.45091 4.38944 
98 1 18.4653 6.12518 2.24218 
1897 1 19.6256 5.06342 0.49414 
531 1 7.16336 1.23492 17.8511 
261 1 21.8078 1.42104 1.44218 
409 1 25.4752 5.3005 3.31221 
147 1 23.394 6.62152 3.01256 
220 1 22.3178 5.07146 0.0391814 
1902 1 24.5811 3.25347 1.03359 
2182 1 28.6186 0.935022 1.52853 
265 1 23.8153 -0.755741 6.50847 
73 1 26.314 3.08114 2.52562 
506 1 27.9127 5.35484 2.94113 
1863 1 26.3405 8.58112 1.56243 
1819 1 31.7432 4.90188 0.59628 
2829 1 29.9298 16.8244 16.4384 
1034 1 20.6359 -0.557867 16.2871 
271 1 30.9427 9.09297 2.14134 
8 1 35.9156 7.78764 0.342853 
1829 1 34.2401 6.3156 -0.65972 
33 1 36.3091 3.69262 0.00248312 
277 1 -0.521025 8.70543 1.75118 
2077 1 26.562 1.69819 -0.206202 
251 1 3.18067 11.1525 -0.319603 
2879 1 1.14584 15.0786 5.24205 
1877 1 0.486881 8.64232 0.0529656 
128 1 5.38753 7.70051 -0.691584 
2405 1 36.6665 17.0815 -0.792948 
26 1 25.4682 0.327955 1.30167 
1983 1 11.2067 6.78342 0.963184 
485 1 7.89359 5.56567 2.17661 
82 1 10.0858 9.05615 -0.254939 
167 1 10.8544 8.54097 4.9865 
2532 1 11.8458 3.47924 0.555794 
14 1 16.1684 8.19559 1.79993 
342 1 15.4558 9.75878 0.324596 
166 1 16.6271 7.22112 3.84579 
2215 1 12.4021 9.53613 -0.260996 
1300 1 14.1712 11.5173 -0.632495 
298 1 21.6414 8.15231 2.98365 
605 1 2.63976 -0.748375 6.34233 
912 1 24.1096 7.08141 18.1052 
268 1 23.809 12.7171 -0.185102 
1342 1 20.228 11.9413 1.50905 
109 1 20.6526 7.22879 0.224038 
176 1 7.28184 16.3876 -0.718689 
107 1 23.7833 7.615 0.910648 
72 1 24.345 12.3846 2.50888 
2268 1 20.3738 14.3981 5.77987 
1505 1 22.0469 4.81487 17.5778 
673 1 28.9663 9.01867 0.927223 
356 1 25.8838 10.612 3.9928 
350 1 27.4209 10.9523 2.09726 
66 1 29.0537 3.90108 0.118765 
1956 1 35.3261 12.6375 1.79533 
3202 1 31.9883 17.8558 15.1986 
315 1 33.0254 8.91943 4.00483 
3995 1 29.2994 7.88732 3.53386 
1995 1 35.6093 10.3274 2.38236 
158 1 33.3339 10.8805 1.66529 
212 1 14.7923 4.06456 0.743663 
1713 1 34.2617 9.57072 -0.894621 
2773 1 14.1325 0.127745 2.67941 
199 1 3.16676 11.4511 2.88842 
1996 1 1.46663 12.7292 1.31139 
1965 1 2.83655 8.78964 0.320522 
2026 1 16.452 16.1935 3.25955 
1997 1 3.77373 13.908 0.156244 
3804 1 7.85893 14.4008 1.98573 
1220 1 18.8791 8.11201 18.0908 
1923 1 7.8224 12.4751 3.93765 
3611 1 8.44745 11.7853 -0.0589861 
368 1 9.19842 8.33351 1.60136 
3004 1 5.04574 16.3706 13.4776 
2356 1 31.2313 -0.371108 11.0819 
1927 1 11.0338 10.7403 1.09847 
2989 1 27.7623 0.0844304 16.9141 
2006 1 9.55888 10.9509 3.81597 
893 1 8.16401 -0.794034 16.6747 
177 1 13.4614 9.40476 1.84911 
781 1 11.2992 8.87009 2.41579 
537 1 14.6768 16.827 2.26966 
832 1 36.6564 9.73725 17.4119 
1969 1 15.1324 13.2251 1.14847 
150 1 28.577 11.1626 -0.19544 
1908 1 20.8256 14.7101 1.63149 
139 1 22.2854 14.8356 -0.791599 
3827 1 24.9374 10.6161 0.411674 
1716 1 26.2289 16.6851 0.709559 
2637 1 27.6933 15.1443 1.49761 
309 1 29.6006 13.5448 -0.231739 
589 1 23.9982 14.5439 1.14107 
1038 1 26.6614 12.937 3.11706 
204 1 31.0717 11.6777 1.18652 
1751 1 33.285 13.0526 0.668349 
959 1 36.1033 14.4277 2.52525 
1959 1 36.5152 9.95198 0.0996577 
1756 1 -0.595599 11.4738 1.6266 
1761 1 -0.721401 13.495 0.845622 
397 1 3.28362 15.7333 5.03044 
2873 1 0.627094 14.751 -0.852221 
156 1 5.86382 16.4042 1.41575 
1772 1 6.23454 14.5858 0.285688 
381 1 18.7875 12.2242 -0.886151 
2017 1 9.05857 14.1503 -0.487683 
174 1 7.63269 16.1714 3.53896 
1096 1 8.67819 6.84148 16.5404 
1947 1 24.5653 5.45012 0.754286 
1187 1 30.7356 15.5624 14.3719 
577 1 11.0586 15.1606 2.41621 
179 1 9.41898 15.6871 4.90269 
248 1 -0.903922 0.453171 4.8827 
2257 1 13.0147 12.2684 1.41537 
148 1 11.6087 17.8143 1.87216 
374 1 11.2048 13.355 0.236372 
108 1 19.2875 14.9581 -0.495878 
102 1 18.5985 17.1091 1.93457 
758 1 37.2812 16.7793 6.37991 
548 1 13.5959 15.2265 0.83691 
1991 1 22.2389 17.148 2.56063 
1783 1 21.2566 16.889 0.26253 
155 1 29.4267 17.6604 3.5733 
2072 1 18.172 13.476 0.861196 
1324 1 35.3129 17.5653 15.2181 
2565 1 1.92424 -0.809691 2.20441 
808 1 2.63943 0.120008 13.6821 
2435 1 26.2655 17.4386 3.45575 
907 1 23.5057 14.1731 15.3157 
1903 1 29.7365 16.1541 0.313254 
751 1 20.6872 16.1116 4.02343 
2297 1 19.07 15.9953 9.57399 
1684 1 31.7795 13.3314 2.87895 
3667 1 30.4293 15.6544 6.12519 
2662 1 12.0957 17.3852 15.7101 
2302 1 23.3222 17.8957 11.1026 
987 1 29.2127 17.4789 10.8891 
1999 1 36.4333 14.6767 5.01134 
1150 1 33.2143 13.5678 18.0223 
759 1 1.22352 15.7148 1.87643 
3626 1 24.0289 17.0869 0.765963 
1849 1 -0.485435 3.6062 5.67363 
1598 1 35.9932 12.1998 -0.780389 
2972 1 0.0162457 -0.286695 7.19466 
648 1 1.01829 1.72866 6.18119 
1346 1 32.8303 11.1597 17.4791 
252 1 3.57722 2.30324 4.3375 
313 1 3.72456 0.800264 2.74176 
688 1 5.18503 3.49298 6.07277 
331 1 9.11706 4.1751 4.2716 
247 1 7.1074 1.88744 5.49468 
327 1 6.84875 5.72124 4.76522 
654 1 5.18332 3.96413 3.76354 
1885 1 12.8337 5.18537 2.04577 
488 1 9.56683 5.8511 6.51221 
482 1 11.4121 3.27 3.56641 
2770 1 8.99495 3.61519 0.900856 
2375 1 11.2194 0.0811785 4.17897 
287 1 13.5554 2.54358 3.2242 
2576 1 13.8117 4.58403 4.79984 
91 1 15.0893 0.499489 5.15406 
3062 1 24.4177 15.9892 17.4768 
625 1 17.4967 3.15995 6.60655 
223 1 22.5836 1.1022 4.27675 
420 1 23.2215 4.22011 2.68408 
865 1 21.2993 2.53487 8.39361 
1894 1 24.2919 1.80048 2.98771 
1217 1 12.5142 -0.85831 17.5892 
1617 1 11.4035 -0.859128 13.8225 
504 1 24.797 1.29719 5.4721 
429 1 26.8423 1.73504 3.99236 
433 1 28.5159 3.13314 3.09477 
1864 1 30.2431 5.51621 2.62717 
528 1 5.41206 17.4493 8.76384 
679 1 33.3402 1.12061 5.45565 
1661 1 31.6288 2.78168 0.301876 
1951 1 33.6795 2.79424 3.76337 
430 1 33.8184 4.55057 5.66614 
3916 1 35.9607 5.13539 4.23501 
710 1 30.7951 2.4707 3.07087 
2357 1 34.2904 2.70166 0.983721 
70 1 33.3146 5.20303 3.10168 
78 1 36.2868 2.35354 4.55766 
3643 1 1.08873 4.14067 2.48924 
35 1 36.4983 2.10087 1.91573 
1920 1 0.200015 2.58884 3.65269 
278 1 -0.662997 6.17342 1.38479 
241 1 2.35833 4.11756 4.84614 
159 1 1.73391 6.8032 5.12078 
650 1 3.39065 5.67115 3.46471 
446 1 4.09749 5.46013 6.48806 
297 1 8.98211 7.17771 4.58102 
299 1 10.3366 6.05219 3.12603 
1122 1 8.03556 6.21589 8.38419 
88 1 12.6678 1.97902 5.5204 
249 1 11.6635 7.01912 7.24802 
383 1 15.3466 6.31326 8.65713 
659 1 15.4714 5.22385 3.11914 
416 1 13.967 5.8199 6.80159 
739 1 17.1977 7.94871 6.50623 
610 1 15.0676 2.58256 5.75284 
1907 1 19.1756 3.6145 2.89674 
24 1 19.5822 6.89175 4.44084 
301 1 20.4693 10.8198 4.3475 
535 1 21.0507 6.192 2.50567 
495 1 15.6904 2.21145 2.34965 
2273 1 31.0174 17.9589 5.32091 
264 1 21.6923 4.96392 4.85518 
698 1 25.222 3.83317 5.07188 
417 1 21.5098 3.1433 3.56987 
662 1 27.0289 3.67125 6.28274 
1827 1 29.3172 4.50313 5.25044 
303 1 27.8842 6.14233 7.46387 
418 1 31.4039 6.71295 4.26641 
349 1 25.3895 7.29197 4.41751 
753 1 29.7319 2.43144 7.44419 
668 1 25.8094 8.48163 17.9373 
276 1 32.1998 2.95485 6.8805 
272 1 33.3217 7.49533 8.64008 
2122 1 33.608 6.78142 4.7318 
32 1 36.1798 4.53946 6.64269 
550 1 36.0637 4.45966 2.19191 
1940 1 -0.795902 7.5416 3.61123 
1921 1 0.112742 5.31117 4.02794 
165 1 1.63279 10.3152 4.58223 
1932 1 3.45836 8.49994 3.08722 
415 1 4.10164 7.69683 5.55866 
2398 1 3.74968 6.28012 0.30642 
1768 1 5.73375 6.54611 1.72166 
53 1 8.08194 9.2577 3.45331 
294 1 8.62231 6.74001 0.314922 
769 1 6.64251 8.53309 1.56599 
724 1 6.13491 7.95502 3.86353 
333 1 9.63587 10.0638 8.83976 
126 1 12.2623 6.23488 4.84182 
565 1 8.5809 10.5434 1.70739 
496 1 13.746 7.05629 2.58973 
969 1 10.2571 7.88443 9.69382 
99 1 14.3045 7.38088 4.8745 
339 1 18.6568 9.27786 4.18354 
144 1 14.4504 11.237 2.93181 
343 1 17.5851 9.87857 7.39891 
101 1 20.9286 6.57543 6.67875 
345 1 17.694 9.6826 2.03943 
270 1 16.5504 11.5338 1.18627 
988 1 19.8449 9.16434 1.81466 
475 1 26.2926 0.178183 7.27902 
143 1 19.5209 10.4007 -0.17848 
308 1 22.0679 10.4976 2.48209 
263 1 23.6041 9.01239 3.91682 
145 1 22.9877 12.648 4.36507 
553 1 25.9268 4.38584 8.78906 
458 1 22.2666 7.60183 4.97321 
497 1 25.5658 5.85009 6.88659 
112 1 26.166 2.27198 8.38024 
1912 1 25.3044 12.4595 5.6522 
512 1 31.2027 11.2283 4.24625 
720 1 30.157 4.87826 7.18337 
34 1 33.8452 8.20912 1.38276 
644 1 29.4426 7.32998 6.02238 
1960 1 35.5031 7.0596 2.81957 
83 1 -1.02642 6.97282 6.26816 
244 1 33.3198 8.27758 6.29444 
567 1 -0.893404 10.089 3.67014 
153 1 1.56435 10.0008 2.00236 
235 1 5.75298 10.5116 3.1323 
198 1 3.81878 10.0871 4.7781 
2650 1 6.06527 12.4568 1.97216 
524 1 6.66925 13.1767 7.5226 
913 1 3.15214 14.8983 7.28529 
2051 1 9.51012 12.6856 1.95737 
735 1 6.64564 11.6322 5.95449 
572 1 8.80006 13.3655 5.86976 
441 1 6.02936 9.58227 5.52707 
1967 1 13.1508 12.524 4.82696 
332 1 8.86666 9.47009 5.96962 
369 1 12.8568 9.87635 4.31585 
526 1 14.1821 14.4711 5.08472 
746 1 10.7875 11.8889 6.14429 
530 1 13.433 13.8883 2.93944 
774 1 13.2099 11.343 7.0095 
783 1 15.9328 9.51095 3.90439 
360 1 18.0084 11.828 3.06677 
734 1 15.7983 13.283 3.43407 
552 1 20.5387 13.236 3.63164 
586 1 18.5199 13.1678 4.80083 
103 1 22.2535 12.9323 1.57621 
141 1 24.0297 13.9419 9.08794 
738 1 21.2936 12.0666 5.82163 
355 1 22.0622 9.21134 0.42346 
1946 1 22.8549 14.8564 4.00312 
790 1 25.6639 15.0757 3.02403 
390 1 28.8003 12.8916 2.37065 
2305 1 26.5457 14.0576 5.78305 
520 1 28.7734 12.7237 4.60078 
280 1 29.4828 10.8258 6.14622 
785 1 26.9898 10.7005 6.28886 
279 1 33.9115 13.7353 3.75486 
873 1 31.0339 9.84308 -0.331304 
760 1 31.3851 10.3375 8.05198 
1989 1 31.2493 13.4286 5.36546 
119 1 33.4084 12.9659 5.85161 
554 1 0.186757 12.5109 4.60259 
320 1 2.8752 12.5044 5.91248 
2344 1 13.9136 -0.618707 0.696983 
2439 1 36.0429 13.1762 6.49352 
957 1 4.71407 12.3749 4.30317 
2675 1 4.08209 14.8889 2.08313 
399 1 2.45543 13.6987 3.76518 
1065 1 21.4185 -0.448614 13.9641 
3605 1 4.91972 16.6172 3.87316 
1789 1 27.1808 14.7091 -0.589955 
1963 1 8.62261 15.2035 10.1569 
1729 1 7.84338 17.4497 5.47433 
323 1 11.2389 14.0964 4.86611 
2223 1 11.5311 12.1667 3.40518 
778 1 12.9186 16.9725 6.93157 
782 1 17.0886 13.2162 6.73029 
777 1 19.2344 12.0462 7.26979 
346 1 18.8424 14.6276 3.0289 
2501 1 22.9674 16.0148 8.50298 
2095 1 17.2886 15.1596 4.83774 
493 1 16.609 15.1966 1.40022 
188 1 22.0911 16.6416 5.74671 
3925 1 3.30901 0.00865211 0.437001 
2433 1 24.8724 15.8658 5.18693 
146 1 27.5121 17.308 5.63623 
2828 1 25.1509 17.2081 7.07614 
469 1 1.48127 1.1225 9.72001 
490 1 13.7907 2.75195 17.725 
391 1 28.8077 15.3478 3.79853 
914 1 27.2652 17.5336 8.1285 
714 1 28.1516 15.4074 6.6631 
718 1 29.8538 13.8139 7.32708 
563 1 33.8954 16.5881 8.6291 
2670 1 32.6397 10.8337 6.18785 
2471 1 -0.121428 14.1555 3.04719 
674 1 32.6453 16.037 4.69604 
1271 1 25.0422 0.109072 16.4659 
269 1 1.3663 3.02211 8.3128 
2568 1 3.77101 2.30883 9.52928 
307 1 36.9226 1.9791 7.00734 
525 1 3.38185 1.79251 7.00902 
850 1 9.72837 -0.0217903 11.9523 
2769 1 4.34774 0.248249 8.32046 
615 1 11.3921 1.86858 13.3537 
486 1 8.47896 1.90723 10.2428 
613 1 11.1433 4.09873 5.7427 
290 1 10.4616 -0.448802 6.66827 
1045 1 9.675 3.49003 8.30476 
522 1 11.352 1.92126 7.85713 
2175 1 11.0494 1.94431 10.4667 
452 1 10.7586 4.21983 10.5992 
257 1 16.0836 2.50121 8.58785 
2970 1 14.0501 1.75997 9.78651 
453 1 13.4037 1.1499 7.4416 
211 1 19.2227 3.7318 8.43372 
438 1 1.50069 5.68868 -0.430878 
293 1 19.5921 0.902886 6.62804 
3193 1 18.4847 1.57293 8.71407 
1102 1 30.7447 12.4787 17.1488 
1926 1 13.2095 6.52496 0.0131427 
2378 1 20.1174 2.09266 10.4732 
3002 1 30.8758 14.9201 17.4479 
226 1 29.2855 1.73446 5.35776 
2591 1 23.0918 -0.174979 8.98979 
834 1 24.0807 1.46846 7.60709 
422 1 28.0557 1.57661 10.6612 
2188 1 28.3558 0.624755 8.52727 
1105 1 15.1764 6.54305 17.8787 
2993 1 35.5161 15.3428 13.857 
3207 1 6.99364 10.2198 -0.412631 
1275 1 29.5756 5.25774 17.1898 
27 1 32.5533 -1.10987 -0.270268 
1904 1 12.0655 1.13733 -0.972168 
234 1 34.6066 2.87759 7.16415 
317 1 36.2447 1.89481 9.13086 
284 1 36.661 -0.361736 11.1148 
711 1 0.899417 4.85581 6.83958 
492 1 3.67541 5.61347 8.9997 
479 1 1.94709 2.76542 13.9729 
717 1 1.34441 4.95869 9.21353 
203 1 5.48548 7.86445 7.2665 
1127 1 6.39485 7.28921 9.39294 
288 1 7.40052 -0.0430938 13.0784 
456 1 6.03621 5.72173 7.68222 
250 1 8.04259 4.59753 10.1714 
691 1 11.4316 4.89176 12.4718 
292 1 12.9854 2.68167 11.7506 
2776 1 13.1612 6.31517 9.60976 
487 1 10.3471 5.86239 8.73536 
811 1 15.0553 1.81502 12.3729 
336 1 13.2999 8.79904 6.10698 
16 1 13.6128 3.5201 8.25725 
312 1 17.6874 5.48842 8.44745 
664 1 18.3309 5.77703 5.83725 
262 1 15.3023 4.39447 12.9278 
620 1 21.5354 8.4722 7.71559 
104 1 23.6559 4.54265 6.46012 
502 1 22.0025 2.52186 5.80269 
260 1 19.8042 3.79486 5.43114 
387 1 22.6653 1.47184 10.5905 
461 1 21.3475 4.35989 7.11746 
559 1 26.2859 3.26312 11.0993 
273 1 23.1351 6.02646 8.4045 
2395 1 32.8839 1.61206 8.67286 
266 1 27.5763 6.37336 5.11203 
236 1 30.8678 1.66618 9.83829 
881 1 31.9661 6.37101 6.94781 
545 1 30.9282 3.69103 9.21052 
1743 1 31.7347 4.22737 4.83257 
440 1 32.6913 4.95746 9.39848 
233 1 34.0968 -0.423584 9.25849 
1115 1 35.0933 6.66779 6.39266 
517 1 0.0490477 3.04488 9.99185 
281 1 -1.06947 4.76753 8.39541 
1723 1 2.41587 7.13443 7.36788 
408 1 2.23626 7.23364 9.73842 
915 1 2.57602 12.0276 8.9775 
684 1 0.58231 8.89469 6.00726 
802 1 2.47427 9.7188 10.339 
239 1 2.91976 9.87012 7.1014 
329 1 7.7639 7.17301 6.54923 
1158 1 5.12156 9.35869 11.1188 
243 1 9.0276 6.62314 10.9898 
768 1 4.78353 11.2501 7.51217 
97 1 7.36605 11.0093 9.50296 
419 1 10.7153 10.1269 11.4422 
853 1 12.4362 8.51262 8.81325 
902 1 11.9733 6.94152 11.5359 
410 1 17.0918 8.15942 9.05172 
534 1 15.4248 3.70624 10.2884 
686 1 15.0964 9.52865 7.23107 
95 1 19.103 7.44793 7.86474 
2225 1 22.5512 10.1452 5.98931 
529 1 21.2612 11.2073 8.52932 
581 1 18.938 10.0306 9.27487 
190 1 23.2484 11.8837 7.68035 
1905 1 23.7478 9.48991 8.17634 
749 1 28.5361 5.70348 13.4047 
591 1 25.2093 9.20882 5.64717 
316 1 23.8784 7.6585 6.75974 
516 1 25.755 7.00326 8.84843 
1192 1 30.4066 8.26461 7.9215 
519 1 28.3216 9.76994 4.39892 
2877 1 27.5236 8.63226 6.33745 
84 1 35.7086 8.97988 4.60013 
1994 1 28.2203 6.34401 10.3615 
878 1 33.2616 5.43118 12.9273 
675 1 37.2669 11.1046 5.88356 
804 1 33.4644 10.661 9.25287 
197 1 35.2645 9.39252 7.39018 
1887 1 -0.815519 11.903 8.11875 
1074 1 0.749276 9.28184 8.41756 
403 1 30.6388 9.14846 5.34494 
1078 1 36.8381 10.7742 12.2405 
483 1 1.29207 11.3965 6.9639 
361 1 -0.700274 13.8541 9.63386 
685 1 -0.683405 14.1216 7.45094 
641 1 0.555531 11.125 10.3792 
319 1 0.473294 15.0409 11.6537 
282 1 4.88782 11.3215 9.87551 
721 1 1.97914 17.0767 7.29354 
2639 1 4.86698 12.6071 11.7277 
682 1 4.38248 8.64293 9.05459 
681 1 7.78342 9.35765 7.72044 
80 1 8.82435 13.8285 8.31803 
807 1 4.69683 14.099 9.29618 
42 1 8.76779 11.5289 7.33067 
367 1 6.60586 13.4415 10.0897 
766 1 7.81666 17.3968 10.4464 
936 1 9.18806 12.3314 10.1261 
335 1 11.0392 9.8712 7.33529 
885 1 11.3782 12.593 10.9908 
2251 1 8.45676 13.8935 11.8493 
500 1 16.1547 11.5521 8.10593 
895 1 13.3678 12.8468 9.56951 
816 1 14.698 14.9863 9.43165 
556 1 15.3891 11.2469 5.55539 
2833 1 17.7407 11.0023 5.34931 
792 1 20.3354 11.793 10.9733 
590 1 20.1306 9.2092 5.97576 
2434 1 19.8656 14.3254 11.6501 
745 1 22.0717 13.204 10.2775 
584 1 23.0759 13.9007 6.50644 
352 1 26.2077 13.696 10.0535 
989 1 26.0302 14.8451 7.93992 
2432 1 24.8724 14.9554 11.1955 
358 1 28.0122 12.7745 6.88849 
463 1 25.7218 12.0716 8.20398 
713 1 30.1975 13.3341 10.6219 
667 1 28.2609 10.7136 10.6463 
347 1 28.7248 11.5552 8.69272 
920 1 32.049 12.9452 9.05474 
2869 1 32.4368 14.8031 7.23732 
918 1 35.549 13.0281 10.2241 
870 1 36.6886 12.2884 3.7597 
514 1 34.5884 12.0093 8.04135 
841 1 34.0566 11.1614 4.0636 
2800 1 32.1067 1.19686 12.8592 
2203 1 -0.0837491 16.1463 8.99039 
324 1 2.00478 14.3961 9.30942 
2254 1 17.7739 15.4342 7.39571 
357 1 0.165159 11.3487 -0.508079 
518 1 6.02389 14.2843 3.83613 
2436 1 34.8343 17.2385 6.72043 
898 1 18.1118 3.08567 17.9502 
325 1 6.56915 15.5613 8.73491 
2207 1 11.8177 15.5265 10.0536 
142 1 17.0448 17.1407 -0.528884 
569 1 12.5428 14.562 7.38968 
372 1 16.8823 13.8693 12.3804 
2418 1 15.6098 13.0228 10.0907 
2464 1 15.2126 16.1324 7.48296 
2462 1 14.715 13.3587 7.35896 
750 1 19.8259 17.5615 14.4692 
784 1 13.7935 17.1131 9.96298 
1461 1 22.7357 0.917485 15.4706 
2424 1 17.6344 13.8537 8.8857 
2817 1 16.889 16.2371 9.44523 
3105 1 18.8646 12.762 13.0459 
791 1 20.2524 14.0056 8.83361 
3068 1 24.0869 16.2273 13.1143 
981 1 22.112 15.467 10.781 
2729 1 13.0247 -0.754607 5.27547 
2222 1 24.6965 16.6877 9.78984 
3026 1 27.0272 16.1402 10.9966 
3234 1 33.8629 17.6774 17.3799 
510 1 30.9731 14.8868 9.23058 
3065 1 29.9189 16.6907 8.15639 
951 1 28.1668 12.7054 11.8841 
450 1 9.80804 1.26139 -0.104806 
560 1 35.9746 17.458 4.0136 
353 1 34.542 15.2019 6.33308 
513 1 32.4445 16.42 10.2928 
1189 1 28.1269 14.4222 9.02924 
424 1 13.3221 -0.790429 10.1587 
964 1 36.3039 17.3092 9.62918 
2457 1 9.23438 15.9091 7.62078 
208 1 -0.227565 2.64172 12.6388 
699 1 18.4825 -0.138318 10.6701 
2924 1 2.36913 4.42845 15.3624 
2971 1 6.18759 0.242969 16.051 
642 1 6.21554 1.33713 7.65112 
1083 1 6.13194 1.60171 10.3135 
606 1 3.36031 1.35689 11.8352 
894 1 6.82123 3.76906 14.3514 
715 1 29.2866 8.21475 17.5128 
1054 1 8.26645 5.12323 15.2603 
2963 1 15.1197 0.368891 14.6389 
646 1 10.1581 -0.209576 9.48587 
291 1 8.96162 5.20903 12.8601 
851 1 9.53903 0.662203 14.4152 
2700 1 10.7679 -0.670964 16.1783 
993 1 31.6106 13.2311 15.1424 
2734 1 17.0858 5.13461 15.4621 
854 1 17.0163 -0.158811 12.7087 
922 1 35.8177 12.1034 17.4779 
12 1 9.76627 2.47728 5.57712 
2777 1 17.8916 2.63216 15.6915 
2480 1 32.0657 17.7209 12.2722 
704 1 6.82628 5.42644 -0.378377 
660 1 16.0587 -0.203806 9.73417 
23 1 18.0154 3.90189 10.3515 
305 1 24.5673 2.15197 12.2467 
706 1 21.3216 -0.244296 11.289 
1032 1 20.0332 1.07427 12.7823 
875 1 23.5597 -0.192108 12.1419 
657 1 24.6113 -0.411132 3.82555 
224 1 26.9492 3.20554 13.4801 
2587 1 26.6713 0.972982 12.3301 
1503 1 5.21972 -0.820191 2.11992 
2789 1 30.1894 1.52028 12.1999 
2388 1 26.1699 4.63055 -0.378609 
603 1 29.042 3.53997 11.5395 
137 1 15.6519 6.65286 -0.318703 
1325 1 32.3794 2.91197 11.1688 
604 1 36.5113 2.67923 14.5927 
242 1 0.275365 0.231495 12.4889 
601 1 36.5621 0.231052 13.6196 
1079 1 34.3523 1.46398 10.9243 
1048 1 36.9736 4.72034 10.9439 
843 1 1.75149 3.15482 11.8399 
886 1 3.87507 4.07705 11.239 
523 1 4.18867 7.14279 11.9763 
3162 1 4.75621 3.01966 13.1803 
1043 1 2.43908 8.14535 13.0687 
892 1 6.04726 5.04999 11.9307 
481 1 8.24943 2.05779 12.5488 
863 1 9.47066 1.26883 16.9137 
973 1 6.15977 3.56925 8.88505 
491 1 7.54508 7.88441 12.6802 
846 1 14.477 2.53939 14.8646 
663 1 9.07348 3.51612 16.7506 
933 1 9.83626 3.14571 14.4046 
653 1 17.2192 1.93832 11.2073 
618 1 11.0047 5.5487 15.0159 
693 1 13.679 5.22914 11.7946 
1022 1 19.3377 5.92656 14.1867 
2463 1 19.2399 5.5485 11.5117 
1021 1 22.0025 4.54307 10.4819 
28 1 20.7908 3.63666 12.4289 
543 1 18.5564 7.54246 15.3064 
501 1 25.0386 0.950944 10.0399 
64 1 24.211 4.50482 13.4659 
869 1 25.9711 6.22191 11.9959 
2624 1 23.5855 3.6698 8.72824 
1117 1 31.377 6.9 9.56213 
867 1 24.0417 7.78636 10.1071 
835 1 30.3706 2.96739 15.6173 
879 1 36.0652 2.71955 11.5109 
515 1 34.3641 4.35814 10.748 
880 1 35.2726 6.23931 11.849 
1281 1 32.0997 3.6505 13.9213 
404 1 35.2211 6.22726 9.03839 
480 1 33.1661 7.19872 11.0504 
2391 1 30.8686 0.0117701 6.51233 
888 1 0.640859 6.32451 14.3731 
2768 1 37.0652 8.0322 8.11286 
285 1 34.9387 3.92416 15.6597 
844 1 2.01213 5.53154 11.545 
1318 1 -0.0525672 9.1507 11.1784 
884 1 2.2364 13.1123 15.9952 
1082 1 -0.339954 8.87528 13.8295 
728 1 3.9162 5.75549 13.8011 
690 1 6.4763 10.5007 13.5504 
729 1 3.98343 10.6933 13.1295 
246 1 8.15183 9.27431 10.8596 
937 1 10.765 8.05913 15.7207 
562 1 12.9404 3.75661 13.9206 
2845 1 8.96972 9.59474 13.1226 
164 1 6.6314 17.7769 12.4602 
580 1 3.75325 7.69323 15.9771 
2220 1 10.0245 11.8626 12.8435 
656 1 10.3011 7.47189 13.1752 
692 1 12.7427 6.52633 13.7025 
571 1 13.1951 11.0392 13.6747 
541 1 14.6908 7.22963 12.3313 
696 1 14.6963 5.78812 14.6855 
1090 1 11.2106 12.7048 8.57529 
2810 1 14.6313 8.55857 9.76909 
494 1 21.5382 6.8937 10.3014 
539 1 16.2893 6.23508 10.617 
1149 1 17.3377 6.02647 13.1034 
651 1 20.0904 5.5778 9.10538 
551 1 23.0382 9.18981 12.0346 
2622 1 21.5541 9.38805 10.1001 
789 1 17.4801 9.38396 14.1434 
549 1 22.7748 11.1021 15.3782 
498 1 28.6166 4.13972 8.96475 
680 1 23.7498 7.30226 13.1154 
712 1 27.234 9.45514 16.1689 
557 1 29.937 7.56867 13.3457 
949 1 25.734 10.0615 10.4996 
478 1 27.0379 8.29813 10.6306 
1042 1 30.867 5.57908 12.0487 
629 1 31.5286 9.0436 10.2135 
960 1 32.0536 7.60722 13.2447 
1111 1 35.7349 8.21325 9.9565 
507 1 35.2202 4.06492 13.2695 
1201 1 36.9318 8.08438 15.8332 
683 1 -0.214952 6.85879 12.178 
723 1 36.1444 8.71506 12.6177 
3030 1 35.153 8.80534 14.4235 
876 1 -0.377608 6.67481 9.68909 
558 1 0.920641 10.8308 12.8879 
799 1 36.8042 10.3543 9.61225 
1156 1 36.7202 10.5727 15.1707 
1113 1 3.88549 13.9561 14.2398 
722 1 -0.579055 17.0536 14.9346 
919 1 3.13393 14.6139 11.493 
975 1 5.01655 16.2389 10.9059 
124 1 10.8248 12.6433 15.9152 
1928 1 6.21043 14.4491 12.5564 
2615 1 7.78213 16.2313 13.9424 
2855 1 12.4704 10.7053 10.1068 
929 1 13.2643 14.795 11.7164 
1185 1 9.53122 14.2463 14.6528 
511 1 17.2845 8.19007 11.8656 
945 1 16.3709 9.99546 10.1971 
776 1 13.9829 11.8186 11.7122 
773 1 17.8306 11.7865 10.6044 
583 1 19.3715 7.54893 10.2578 
2415 1 15.1714 10.4596 15.0808 
910 1 23.2708 11.0524 10.1211 
947 1 20.4776 10.8119 14.2785 
744 1 19.0363 10.2289 12.3522 
658 1 27.0629 7.76635 13.7175 
508 1 24.9268 12.0312 11.8727 
908 1 22.5156 11.6499 12.3272 
474 1 27.3128 9.98616 12.7155 
677 1 30.5964 10.9397 11.0649 
905 1 25.8576 13.7002 13.2951 
1002 1 29.0994 8.02173 11.5187 
797 1 32.7756 12.4595 11.3199 
1025 1 35.5381 12.9473 12.8796 
754 1 28.4486 9.21289 8.66886 
763 1 35.1854 14.4032 8.44192 
996 1 -0.26422 12.7164 12.7765 
794 1 34.6964 10.8772 13.7319 
795 1 -0.878044 17.0314 11.8145 
564 1 2.27231 12.4743 11.458 
2431 1 33.2633 16.2023 13.6001 
1745 1 26.8468 4.74698 17.4152 
2831 1 29.1141 13.6527 15.9552 
621 1 16.89 1.00468 6.98704 
887 1 2.65215 17.0358 10.2258 
968 1 1.47789 16.5734 13.2881 
389 1 35.7779 16.6525 1.46258 
442 1 7.17827 14.6772 15.6831 
971 1 10.1307 15.6015 16.9659 
2647 1 11.5462 17.0536 8.5687 
576 1 10.8189 14.8463 12.0612 
2211 1 10.0964 17.0627 11.5271 
2611 1 9.62996 17.6306 15.8547 
665 1 15.282 9.45721 12.3503 
2657 1 14.5934 13.4337 14.0894 
2412 1 12.7552 14.0496 15.4101 
737 1 18.6442 15.8515 13.5609 
445 1 3.90724 2.33254 -0.204941 
3878 1 0.843406 17.2111 -0.159187 
1088 1 36.6543 14.0631 16.4713 
938 1 23.209 14.0141 12.6511 
2862 1 21.2035 16.4153 12.5532 
2705 1 20.9097 16.3189 16.41 
1486 1 5.39733 15.9086 16.0259 
742 1 25.653 14.8829 15.2542 
793 1 28.12 15.0462 14.0398 
982 1 26.473 12.6112 16.15 
678 1 29.9537 17.4498 13.517 
351 1 28.2749 11.3059 14.3012 
1747 1 27.1343 9.49185 -1.10352 
1242 1 32.5954 6.20112 17.2326 
756 1 29.6063 15.3105 11.564 
1081 1 30.1011 13.1485 13.2083 
1161 1 34.7898 13.8988 15.3651 
56 1 5.88479 -0.0355607 -0.444648 
314 1 1.69986 13.9251 13.5889 
2630 1 36.6236 15.1013 11.1801 
1092 1 5.0122 2.55732 15.5502 
231 1 28.6303 -0.821703 11.6598 
3439 1 35.1218 14.3137 -0.127924 
162 1 6.9003 15.2685 6.09373 
1961 1 8.84997 16.27 1.17797 
1132 1 2.4109 10.7843 15.1846 
2616 1 11.2487 17.6871 13.658 
1303 1 9.78918 10.2012 15.71 
405 1 -0.283511 0.201156 2.55495 
363 1 4.91552 16.6814 6.64765 
3993 1 31.5794 -0.356236 3.41648 
1049 1 13.3416 0.386712 12.5516 
2964 1 34.6393 8.03117 16.9062 
375 1 9.8768 17.6361 -0.294504 
616 1 7.42425 1.55101 0.341445 
3384 1 15.9128 -1.09078 16.3516 
1058 1 15.6694 1.43706 17.0693 
151 1 15.9498 14.8196 -0.951464 
860 1 19.0344 0.790356 17.5113 
1024 1 18.3784 3.60418 12.8187 
100 1 18.0765 7.77894 0.207789 
661 1 19.8594 1.37256 15.2717 
2905 1 19.3129 16.9778 11.6182 
2281 1 36.2691 -0.448624 8.80291 
702 1 17.7864 0.283172 15.672 
1284 1 26.3418 -0.441441 14.1939 
3940 1 14.0396 1.99272 0.476847 
1075 1 24.6321 2.70189 15.2299 
447 1 9.06594 0.126774 4.71362 
862 1 20.9403 7.3694 14.0351 
505 1 26.7522 1.89337 15.3099 
3029 1 23.2686 12.9433 17.5432 
2749 1 30.8768 0.472201 15.2983 
805 1 0.400185 0.641322 14.9164 
877 1 31.233 1.08503 17.4729 
2756 1 34.5532 1.62906 13.4457 
256 1 9.03718 1.3264 8.18738 
464 1 20.5591 0.0528441 8.88751 
2762 1 5.2161 -0.371314 11.3799 
2592 1 21.7159 0.283259 6.33591 
451 1 2.07133 6.18341 16.7231 
2567 1 5.144 0.533001 5.41008 
1085 1 2.29944 2.10062 16.0347 
2801 1 1.3317 8.38593 15.4101 
69 1 29.352 6.73967 -0.6785 
925 1 5.02163 5.29194 15.9936 
3566 1 7.8394 1.85174 15.5547 
643 1 6.8151 6.18623 14.0061 
1663 1 26.8422 6.32434 1.19889 
454 1 6.27694 7.31456 16.7528 
705 1 10.7074 5.78309 17.4767 
2265 1 17.2411 17.6682 7.45241 
1175 1 13.004 4.55006 16.2299 
1109 1 31.6979 14.6457 11.8431 
1879 1 1.50842 1.33284 1.34471 
731 1 11.2465 3.2478 16.8716 
3019 1 27.6979 16.052 16.5743 
904 1 21.0169 2.91996 16.4434 
1104 1 22.3673 9.18686 14.1244 
946 1 15.5689 3.92608 16.9437 
697 1 19.4107 4.72808 16.7928 
2454 1 12.5917 15.6608 14.1126 
1230 1 22.7486 2.133 13.4395 
911 1 24.4113 5.18617 10.8368 
473 1 22.5301 5.75984 12.2819 
1229 1 29.5984 3.43161 13.5354 
1023 1 22.8446 6.60265 15.8069 
509 1 26.067 5.64418 14.4931 
836 1 25.218 2.58594 17.4342 
998 1 31.1608 5.79971 14.6503 
1676 1 28.6765 1.11191 14.0408 
476 1 32.456 3.56256 16.5719 
1001 1 34.6908 6.60182 15.0197 
536 1 15.5553 15.4883 13.3726 
3053 1 12.4777 17.0009 11.7943 
1041 1 36.7547 6.65223 14.1092 
637 1 36.908 0.821091 15.9453 
700 1 12.6424 10.2643 17.9979 
921 1 36.8823 5.61449 16.4248 
3564 1 -0.833277 4.76074 13.0892 
1354 1 32.7824 15.3994 16.0392 
743 1 20.7957 13.0986 13.7388 
839 1 0.24465 8.42162 17.643 
3189 1 34.7178 1.24841 17.1067 
943 1 18.7334 12.4293 17.3402 
889 1 5.26659 8.01842 14.1942 
932 1 3.53299 3.72795 17.2504 
1368 1 3.82533 11.8159 17.2418 
770 1 4.9277 11.2162 15.4623 
1086 1 5.52357 9.35564 17.3607 
1093 1 7.86984 8.62769 15.3772 
1173 1 12.7156 9.53643 15.7228 
1208 1 12.7333 7.18808 16.3818 
468 1 20.6744 6.8999 16.7534 
540 1 14.4785 8.21397 14.7139 
655 1 16.3822 7.40775 15.9669 
2821 1 12.8613 8.90305 12.4659 
941 1 11.2823 9.93969 14.0131 
1046 1 28.3661 4.19647 15.3077 
6 1 6.79277 -0.734692 3.78163 
732 1 20.0105 8.32055 12.4804 
599 1 35.3592 16.8756 11.9412 
337 1 21.438 11.882 -0.971243 
858 1 22.3365 8.71794 16.739 
1057 1 24.5715 8.76753 15.3426 
716 1 26.8391 6.95027 16.3896 
608 1 2.00955 -1.02827 11.2532 
695 1 29.0406 6.80499 15.3189 
1311 1 32.3399 11.0537 13.0105 
398 1 31.9333 17.2323 6.99149 
874 1 33.7519 8.9322 12.4768 
752 1 33.464 9.65642 15.6125 
2744 1 20.1582 16.2925 7.58787 
1866 1 27.3304 -0.555721 5.00726 
275 1 34.2369 -0.70013 12.2283 
2771 1 7.49598 -0.379989 10.2375 
1327 1 1.07786 15.7404 15.4361 
882 1 -0.114 12.5419 15.3289 
725 1 0.575766 11.2421 17.214 
1162 1 7.17091 11.9424 16.9555 
883 1 6.01918 12.7926 14.0875 
762 1 8.80797 13.562 17.1738 
209 1 8.05554 4.15502 6.81155 
3005 1 5.48144 13.7846 17.0029 
2218 1 7.72777 11.4642 11.7262 
2185 1 19.0712 -0.747785 4.85946 
2150 1 29.3847 0.356439 3.58014 
1020 1 19.7146 3.55406 14.5145 
2209 1 11.7664 13.2924 13.3163 
1116 1 34.0508 14.7569 10.5646 
775 1 8.18776 11.9682 14.5482 
980 1 14.3991 14.056 17.9015 
1796 1 32.6363 17.9464 1.08812 
977 1 13.361 12.0562 16.2683 
917 1 31.7291 8.30524 15.9513 
2825 1 17.3224 13.5825 14.6544 
1440 1 0.940897 0.298681 17.7806 
1188 1 14.6198 8.64145 17.2829 
923 1 -0.840244 16.2378 17.2607 
542 1 18.376 11.4058 14.9755 
2314 1 33.2435 0.775603 2.68359 
985 1 25.2944 9.03903 12.9465 
1508 1 20.0645 9.45369 16.4959 
983 1 17.2345 10.2959 16.556 
3589 1 28.873 1.93361 16.9943 
1687 1 10.3067 -0.923419 -1.09387 
624 1 24.8287 10.6336 17.088 
2830 1 24.1149 12.3424 14.2494 
861 1 29.842 9.91456 13.0292 
186 1 25.971 13.1139 0.891474 
595 1 25.7429 10.763 14.7611 
1517 1 35.1667 15.7774 17.5138 
207 1 1.73817 0.371812 4.29837 
619 1 7.56142 -0.0571709 6.81163 