ITEM: TIMESTEP
40000
ITEM: NUMBER OF ATOMS
4000
ITEM: BOX BOUNDS pp pp pp
-1.1636128753667734e+00 3.7313612875367248e+01
-1.1636128753667734e+00 3.7313612875367248e+01
-1.1636128753667734e+00 3.7313612875367248e+01
ITEM: ATOMS id type x y z 
1209 1 3.47828 -0.539622 2.66013 
3139 1 4.41978 2.83666 0.435666 
221 1 35.8911 -0.434696 2.1362 
1644 1 2.00823 1.81069 0.0555302 
902 1 4.7866 1.64962 2.46704 
137 1 28.3664 4.64375 0.210331 
1121 1 1.64555 9.69117 3.23299 
155 1 32.454 17.9607 9.29202 
1625 1 26.4 -1.08226 12.9774 
3773 1 9.78551 -0.577224 1.25007 
657 1 14.7178 0.478784 4.90306 
866 1 29.3391 16.5159 17.0295 
260 1 26.6382 -0.684961 10.0351 
524 1 7.94707 3.34013 -0.771281 
1898 1 14.6688 5.43296 4.40103 
415 1 15.3843 1.44347 1.00808 
691 1 13.3774 0.606667 2.70705 
1984 1 16.0858 -0.195912 3.45244 
1655 1 15.8588 3.88366 1.26237 
1232 1 19.3916 1.0031 0.161602 
1965 1 23.604 3.49165 2.7286 
1162 1 1.77528 9.10204 0.691102 
1220 1 23.3754 0.00123328 -0.18603 
3702 1 16.5223 17.6291 17.0877 
3980 1 21.672 2.14045 0.560959 
1826 1 27.3643 2.16689 0.842509 
1265 1 15.1239 -1.10801 15.0668 
1706 1 36.3115 6.73467 -1.21025 
1723 1 29.3024 1.53012 -0.743193 
1710 1 34.5728 1.31679 -0.795279 
2588 1 31.1639 4.0514 0.262219 
52 1 0.409562 3.60217 -1.06933 
81 1 36.5373 1.82022 0.314457 
3955 1 35.3358 -1.19375 6.39622 
2580 1 13.1402 0.54194 0.353551 
590 1 8.33743 10.7542 -0.388234 
1767 1 36.2148 2.60239 2.55694 
345 1 15.0456 -0.971576 1.46495 
3320 1 -0.0463308 6.03659 -0.468658 
1065 1 -0.137772 0.857258 1.3036 
420 1 2.17986 2.0903 2.48396 
2856 1 1.30946 17.8327 15.1395 
885 1 3.40968 17.9857 16.7301 
3218 1 2.77325 4.52028 2.79268 
1669 1 8.93788 4.64743 1.48235 
3695 1 13.7247 16.461 10.8703 
1174 1 8.7703 1.73074 1.64966 
2142 1 7.48158 0.075428 3.06582 
1045 1 13.508 3.88586 2.64176 
372 1 10.638 5.72704 0.210024 
1224 1 12.5869 7.35016 4.00361 
256 1 4.24787 1.80659 12.3526 
810 1 13.5309 5.17984 0.269598 
469 1 16.2038 7.21868 3.76837 
2942 1 14.2645 6.99441 2.22314 
185 1 17.1023 -0.601572 0.296647 
1687 1 17.6553 3.66381 -0.801904 
500 1 10.2627 12.1035 -0.314421 
1732 1 8.86261 5.39721 15.7759 
2977 1 24.5865 2.05505 0.81814 
1830 1 20.8799 4.91892 1.89503 
3120 1 4.18253 5.67839 0.245135 
1251 1 16.5173 17.7354 9.11627 
580 1 1.50126 14.8476 15.4181 
1501 1 22.7255 6.64328 0.456341 
2067 1 25.2054 7.26957 1.32836 
1538 1 24.9048 5.38815 2.7369 
2106 1 22.1527 -0.678888 4.93347 
1736 1 26.7642 6.91635 -0.0285044 
1720 1 32.0459 -0.543449 1.05331 
1717 1 9.72385 0.193198 4.52612 
436 1 1.50822 12.8237 0.557612 
1223 1 34.0096 5.71861 -0.909508 
3875 1 32.0105 12.0833 -1.06082 
711 1 28.7881 7.26472 0.582219 
506 1 24.7396 10.4636 -0.57707 
166 1 33.0007 5.29028 1.25485 
3509 1 -0.876078 7.64384 1.6059 
403 1 36.3383 4.29932 -0.69446 
3440 1 31.8322 17.9108 2.88091 
1027 1 3.68365 16.0845 11.7533 
1867 1 2.18515 7.0997 1.57297 
128 1 -0.270074 10.466 1.56136 
2469 1 0.59839 5.64574 2.06897 
1663 1 3.05505 12.5657 4.92572 
1311 1 5.95454 7.4701 -0.0192152 
1659 1 0.691373 12.7714 5.6784 
2231 1 7.12045 8.28743 2.45983 
14 1 6.62426 4.99927 0.125341 
3181 1 25.0512 18.122 10.3825 
2561 1 7.97734 10.4808 2.19436 
1060 1 11.0079 8.29856 2.64016 
2771 1 27.8059 1.20696 13.8302 
2149 1 11.3103 12.3925 1.87167 
2594 1 14.7655 11.0123 1.06868 
2340 1 13.0286 9.79392 2.46674 
3648 1 35.9937 17.4828 16.8526 
422 1 20.5504 0.845858 16.9813 
2773 1 18.6126 6.63112 2.11973 
3989 1 19.2907 5.83446 -0.221919 
1712 1 20.2596 9.67818 0.254739 
2227 1 16.5319 10.3087 4.84628 
55 1 18.2515 8.38425 0.554475 
18 1 21.5232 11.4237 2.61522 
859 1 22.6409 8.74777 -0.379185 
1852 1 22.8044 8.13914 2.74844 
1661 1 25.8165 12.2891 3.64713 
940 1 26.4619 9.08548 0.648374 
1396 1 33.385 17.6227 4.74243 
2714 1 22.9444 17.4311 5.68889 
2362 1 23.1895 17.5038 1.22205 
251 1 31.7574 7.4682 2.07472 
1789 1 13.9014 16.8151 7.83541 
2049 1 35.2516 7.69191 1.05218 
3657 1 37.2828 9.88885 3.43398 
1967 1 11.959 8.1593 0.339275 
2536 1 11.7089 17.5494 8.2145 
1692 1 20.1791 -0.145036 6.2056 
3147 1 -0.515573 1.07354 -1.18582 
1998 1 0.401741 14.0418 2.46939 
2622 1 35.54 14.7028 2.3381 
2451 1 -0.939932 15.747 4.2881 
392 1 2.10001 15.1862 4.41116 
2768 1 -1.22842 -0.0134217 7.43452 
1885 1 5.73063 10.2575 1.23646 
1207 1 8.93354 14.8067 2.68227 
2802 1 12.7213 16.132 0.429383 
2989 1 32.3985 1.15187 14.5269 
2250 1 7.07556 13.2708 3.6115 
2409 1 8.96714 12.554 1.80357 
1382 1 8.6709 17.2826 1.71893 
3490 1 33.195 8.06102 -0.116587 
2599 1 30.4223 -0.630541 6.35472 
33 1 10.4275 13.6502 3.87123 
3475 1 35.0842 5.87544 16.5607 
1574 1 20.8663 13.5081 5.26589 
267 1 17.0683 10.9142 0.10486 
540 1 19.1131 12.0288 3.70895 
1702 1 13.8641 13.3808 2.06662 
790 1 19.5945 11.8331 -0.177177 
1635 1 9.17373 7.03154 17.5527 
1579 1 23.4712 13.9862 2.9911 
283 1 24.0385 12.3842 0.815188 
2026 1 20.9704 13.5029 2.38 
2654 1 15.8844 15.6816 10.3704 
2318 1 25.3309 14.3673 0.843497 
215 1 23.9356 9.96351 1.47178 
134 1 26.6827 11.2052 0.894355 
877 1 27.4497 13.0678 1.85691 
2123 1 3.92106 -0.186147 0.535101 
1834 1 5.71615 0.286348 10.9285 
1260 1 28.7652 9.8437 0.209788 
1946 1 7.92326 8.70205 -0.220991 
3141 1 28.9274 14.9194 3.26311 
3815 1 25.5376 17.911 5.99217 
518 1 31.8043 16.0168 -0.195658 
521 1 34.5013 13.3205 0.307308 
3539 1 19.8147 17.384 17.1299 
629 1 24.3243 -1.01398 4.14673 
2092 1 -1.02472 16.166 1.696 
3200 1 30.9032 -0.686243 3.79854 
419 1 12.3741 10.7191 -0.0336826 
1518 1 25.716 1.08804 17.6991 
2264 1 8.14738 15.7568 -0.470404 
3448 1 0.586057 -0.934943 11.9882 
1093 1 6.72161 12.4688 1.2002 
384 1 15.7458 4.37451 17.032 
1964 1 3.02441 10.7197 -0.741749 
3696 1 25.882 4.26369 0.614011 
738 1 28.1239 12.7455 -0.727533 
881 1 11.2221 16.6825 4.27918 
2474 1 12.2296 13.891 -0.0359456 
1539 1 14.6669 6.78585 -0.897887 
646 1 15.5614 17.2779 2.17195 
2016 1 17.2839 12.9774 2.0567 
269 1 11.2939 6.24082 15.7951 
2295 1 6.22577 17.6846 1.65091 
332 1 17.7956 16.8042 1.83503 
581 1 24.0356 15.8657 -0.37765 
2463 1 19.0264 14.4994 1.06909 
615 1 9.03275 7.3075 1.27003 
714 1 19.4138 16.812 0.0469105 
621 1 18.2299 14.1058 -0.991436 
2360 1 26.8805 15.3363 2.4711 
1118 1 25.6834 17.2164 1.23942 
2818 1 30.017 13.8932 0.473695 
2701 1 28.6549 17.1809 0.0568267 
376 1 9.53285 10.38 15.5043 
2425 1 27.2872 15.3239 -0.233721 
105 1 5.12011 16.0709 -0.00836127 
458 1 22.9724 13.9064 -1.0862 
3102 1 6.8919 18.0349 16.1997 
2048 1 1.57329 -0.362413 16.2904 
2429 1 32.8771 15.9628 1.93751 
3698 1 14.7562 11.6001 16.4405 
3506 1 32.2328 13.4392 1.12696 
763 1 0.34554 14.7825 -0.500316 
1183 1 5.1466 1.72471 5.10648 
1613 1 34.3179 1.67938 4.28336 
545 1 -0.170684 3.21032 3.73373 
3602 1 0.763375 -0.498685 3.05239 
463 1 15.8472 12.9544 -0.108351 
140 1 6.42985 -1.2596 6.68287 
179 1 1.92894 1.05207 4.71415 
156 1 17.8088 1.1934 17.0511 
873 1 11.4058 1.73974 4.39055 
2952 1 9.20145 1.94893 8.32612 
1937 1 -0.518008 17.8337 -0.412217 
1448 1 11.6708 5.58986 2.21957 
377 1 10.9726 3.10723 6.62117 
679 1 10.2426 3.52459 3.17486 
883 1 13.4019 1.88028 6.19766 
2760 1 19.447 -0.97909 15.8811 
2514 1 20.7079 13.6813 16.8577 
264 1 12.581 3.81481 4.67211 
3401 1 14.092 9.24046 -0.481474 
301 1 -0.797465 16.6995 8.83487 
661 1 18.598 -0.460028 2.62828 
1893 1 6.90618 17.4697 9.90262 
2133 1 17.7415 2.09808 1.30163 
2559 1 3.72352 -0.770017 12.2563 
3565 1 19.9201 2.57652 3.03227 
3548 1 21.8495 1.79114 7.09034 
3680 1 30.3083 16.639 1.41274 
656 1 24.4369 4.95918 4.90752 
2597 1 25.5046 0.137305 2.69477 
3790 1 27.3182 6.22794 6.39308 
769 1 26.4352 0.39749 5.89061 
1986 1 4.96094 17.2877 14.9711 
3904 1 26.3946 3.97936 5.41659 
2948 1 29.9343 -1.09718 -0.0177738 
2179 1 29.3461 3.80427 9.75945 
1509 1 -0.0518356 0.840703 14.2641 
2386 1 28.6827 -0.228275 4.85899 
1323 1 31.2068 1.68666 5.66625 
139 1 33.8637 1.95763 1.825 
150 1 31.9228 0.330907 7.76493 
522 1 33.3904 3.53091 -0.363349 
1087 1 15.9737 15.4331 0.53058 
723 1 34.031 1.24436 6.60623 
1468 1 33.9643 -0.450709 3.19534 
869 1 3.82684 17.4047 1.64884 
90 1 1.76363 4.51237 5.08452 
2994 1 0.64785 6.08387 6.48756 
2555 1 -1.08635 0.963434 3.57755 
1348 1 3.48556 3.02606 4.47874 
3727 1 -0.173793 5.74481 4.44966 
3105 1 4.73574 6.02288 9.55743 
670 1 2.14614 6.72428 3.82908 
572 1 8.1744 5.88933 3.20805 
2845 1 10.5301 7.10607 4.65464 
2766 1 6.84908 3.11714 2.35232 
337 1 12.1014 9.11053 5.28479 
479 1 14.1479 7.12152 5.97426 
1855 1 8.01856 2.31799 4.30918 
728 1 15.1104 2.54579 3.57114 
3979 1 17.4719 1.18297 8.08946 
2510 1 17.6932 0.751986 5.57563 
3152 1 18.0314 3.82653 4.83042 
1671 1 16.6576 4.58507 3.18655 
1188 1 19.6841 2.24338 5.6884 
3921 1 20.2685 4.97141 4.1835 
3633 1 22.5087 5.71784 3.59863 
2385 1 22.0324 2.779 4.40896 
2637 1 18.5722 4.3786 1.92418 
291 1 21.0622 3.93971 6.61322 
3822 1 17.6471 1.94625 3.66954 
453 1 26.1619 6.5511 4.01715 
2117 1 26.6991 3.60275 2.79594 
2183 1 22.8443 10.1587 4.15673 
233 1 29.0713 3.53435 2.29964 
1869 1 30.282 5.7061 1.83179 
261 1 27.1719 8.11509 2.40148 
1235 1 28.5543 2.67637 5.02984 
29 1 33.8818 6.93242 3.00916 
387 1 31.3806 3.54462 2.56673 
1463 1 31.1316 1.59113 0.723947 
2565 1 32.7912 3.34234 4.85121 
1113 1 34.9251 3.57014 5.92986 
2590 1 34.012 4.70736 3.23944 
1768 1 36.024 4.95654 4.04455 
1850 1 -0.346884 3.86245 1.13931 
2268 1 0.146708 7.92796 4.56004 
452 1 3.72763 10.4443 8.50921 
1111 1 36.2806 7.51215 3.54701 
2184 1 0.326542 10.3428 5.08928 
421 1 2.84436 8.68408 5.1643 
947 1 5.67947 6.61254 2.05356 
1064 1 5.03098 4.43635 2.89365 
2071 1 2.04732 4.32831 0.346623 
772 1 9.29431 8.62525 6.31092 
740 1 4.40405 12.5813 7.15955 
38 1 3.89994 10.698 5.03581 
3871 1 14.366 9.63789 7.28374 
932 1 10.6124 10.7988 3.42972 
813 1 8.92447 12.023 4.89391 
544 1 18.6796 4.70874 6.82944 
1685 1 16.5646 10.6686 2.49593 
2286 1 17.8442 8.96234 2.86759 
203 1 16.3402 5.64233 5.96999 
994 1 15.7414 8.36749 0.920916 
306 1 18.2886 6.35687 4.76903 
2062 1 19.9851 7.51252 6.76782 
115 1 20.2672 9.41333 2.43764 
2337 1 19.5362 9.20398 4.94497 
28 1 27.3547 11.1827 7.09434 
276 1 21.0834 7.20352 1.63839 
2833 1 20.5827 7.40258 3.91732 
1274 1 25.0058 9.04709 3.37419 
2317 1 30.7219 10.3096 5.3062 
502 1 25.0067 8.74183 6.85041 
229 1 28.3391 5.05136 4.46987 
1094 1 32.0234 12.1582 5.49035 
3916 1 34.2091 9.17503 2.14155 
3671 1 31.7263 5.97455 4.02945 
34 1 36.295 5.67364 1.96012 
2477 1 35.198 7.36889 5.33569 
870 1 32.8427 8.23337 4.72922 
1411 1 0.907305 8.61761 6.56023 
848 1 35.6851 13.1899 7.14582 
2134 1 36.5467 10.6833 5.85036 
259 1 36.9532 12.2259 3.22968 
2473 1 -0.560428 11.8939 7.61294 
441 1 2.53995 14.4162 6.70962 
281 1 36.8314 13.5853 5.25753 
344 1 2.9126 16.6136 6.24396 
97 1 2.11078 10.8878 6.56346 
3162 1 6.60524 12.3629 5.81535 
547 1 7.11628 8.19267 5.28139 
465 1 5.15611 11.8759 3.02443 
1899 1 8.13718 14.4655 5.49049 
108 1 8.58835 12.3451 7.71038 
2886 1 12.6766 14.3482 4.74131 
2170 1 9.74033 16.0724 5.98588 
3224 1 10.4116 13.3613 6.2663 
189 1 10.7457 13.171 8.77591 
2612 1 14.7023 12.0636 3.47851 
2810 1 15.167 11.6151 6.0076 
2495 1 17.1311 10.7602 7.4095 
1703 1 12.3122 12.0192 4.60034 
2986 1 18.1369 13.5822 6.38319 
543 1 14.7107 13.761 5.68744 
1857 1 17.2725 13.4899 4.2762 
1336 1 20.9275 12.8249 7.25015 
212 1 21.2328 10.7969 5.85512 
2592 1 22.0458 15.0725 6.39309 
1010 1 24.7862 11.0745 5.11075 
2393 1 22.9852 12.9233 4.97327 
142 1 30.0666 12.1054 3.88464 
1351 1 28.3079 10.4934 4.06794 
1025 1 25.4266 14.6882 4.05399 
2970 1 30.1844 9.11039 3.09579 
389 1 25.8375 13.1352 6.02599 
364 1 29.6456 14.5019 5.39448 
349 1 29.0641 7.31002 4.5635 
2037 1 30.1433 11.417 0.956534 
2831 1 33.0853 10.5469 0.245938 
2710 1 32.685 11.5448 2.76229 
1486 1 35.1203 11.3425 2.14011 
662 1 36.7228 12.5897 1.10999 
1716 1 36.0134 9.92765 0.332983 
809 1 30.9238 14.29 2.91612 
2848 1 3.28645 13.2319 2.71008 
2741 1 0.212159 14.8005 6.38164 
282 1 35.4061 16.9161 3.67473 
2328 1 10.6833 2.85533 0.452899 
2423 1 6.09274 16.2538 5.45164 
1524 1 4.65692 14.688 1.90681 
1556 1 6.57556 15.5704 3.04355 
1725 1 5.42561 17.8448 3.65921 
3203 1 4.41432 8.12243 17.9245 
1217 1 31.8146 -0.980162 16.8871 
3756 1 7.96429 16.6836 4.16324 
3002 1 22.0993 17.6287 14.7246 
3752 1 24.8688 2.33051 4.59957 
111 1 13.8871 15.6805 3.30636 
388 1 8.09692 13.3416 -0.570426 
397 1 13.7405 16.8464 5.20287 
227 1 5.49231 -0.464688 3.98508 
1912 1 15.5389 15.2133 8.19659 
3540 1 1.97037 13.0418 17.1773 
1042 1 19.2717 14.546 3.80577 
2377 1 20.7782 -0.563406 1.53328 
2946 1 17.4277 15.7498 5.36917 
2554 1 21.6921 15.6304 4.13258 
3897 1 19.6644 15.1332 6.37959 
1529 1 31.9685 7.25502 17.0851 
1874 1 31.9715 -1.08866 13.9879 
664 1 20.9419 16.9979 7.93247 
3829 1 23.6737 16.047 8.5399 
862 1 23.8785 16.363 3.02122 
3675 1 25.9059 17.1655 3.71523 
1115 1 2.30367 15.5299 2.0583 
1598 1 27.04 15.2758 6.69141 
2398 1 28.1389 16.6823 5.05887 
316 1 27.7069 13.1917 4.69459 
262 1 35.5113 17.7541 -0.51082 
236 1 31.0975 16.0914 4.2266 
1955 1 34.5613 12.2378 4.59588 
119 1 32.2423 14.3281 5.20994 
3679 1 23.8411 8.13667 16.6816 
2208 1 29.7486 16.7834 7.25657 
3470 1 33.2504 14.1518 12.6556 
398 1 33.1798 1.5368 16.8033 
2030 1 34.7476 11.0938 8.01338 
595 1 33.4582 13.8186 3.14479 
1228 1 -0.534675 2.72782 8.23751 
3856 1 35.3498 17.8084 13.2454 
2789 1 4.82666 12.7236 0.165421 
1054 1 5.94109 3.15119 6.90769 
1053 1 16.7681 10.5705 18.0229 
2497 1 7.55606 1.03754 6.73506 
800 1 8.03176 0.282963 9.00025 
3626 1 24.5454 5.77159 -0.274099 
2083 1 1.88843 16.9224 0.442518 
3196 1 8.54405 3.79882 6.07697 
854 1 11.0042 1.93369 10.0383 
1313 1 14.0467 14.1035 15.951 
2168 1 14.169 4.26598 9.34919 
844 1 9.33464 3.66 10.8783 
312 1 12.7314 2.66256 8.6177 
3903 1 17.4788 2.0488 10.5652 
2282 1 20.5346 0.722564 3.87949 
2730 1 13.8998 4.42125 6.66185 
1764 1 27.4836 1.34846 3.24642 
1138 1 10.297 3.79184 16.9066 
2485 1 20.1295 0.799909 8.83445 
2924 1 19.6767 -0.397065 10.5763 
359 1 21.892 -0.443107 7.87583 
3288 1 13.0679 2.9531 0.320616 
3015 1 34.8412 8.73745 13.8259 
3365 1 2.21183 9.25488 17.7711 
501 1 24.7181 -0.465142 8.94424 
412 1 28.389 1.19431 10.9371 
1808 1 30.8922 1.86548 10.2252 
1570 1 14.7149 6.30151 14.9612 
78 1 35.4774 2.14631 8.0748 
886 1 34.1172 -0.53841 9.07653 
720 1 -0.666407 4.00977 6.04628 
2103 1 36.6703 1.97749 5.5576 
447 1 -0.542179 2.33531 12.6607 
624 1 22.5092 14.8736 0.837515 
95 1 0.890733 1.65423 6.57679 
879 1 36.8548 -0.148079 10.2963 
1507 1 36.7177 2.05005 10.1697 
1833 1 2.3059 4.89983 8.87247 
381 1 3.01422 3.35448 6.84799 
237 1 5.0767 7.05444 7.39569 
1896 1 1.12252 6.12425 10.5917 
2361 1 4.52511 4.72033 5.83551 
558 1 7.41585 5.95138 9.50077 
1612 1 6.80188 4.36021 4.56761 
874 1 9.83548 6.34686 7.80912 
335 1 8.43394 6.05614 5.53469 
3884 1 10.2162 4.77635 5.3297 
199 1 12.1548 5.72856 8.56338 
2987 1 10.4561 4.17799 8.53872 
1100 1 16.3121 2.79108 6.24835 
2790 1 18.4354 3.9413 9.04852 
3339 1 21.2789 3.05014 8.85813 
474 1 19.4846 4.80206 11.627 
1016 1 18.1163 0.1296 12.1408 
3970 1 24.117 2.03198 9.47792 
3020 1 23.4601 4.00418 7.48073 
1497 1 21.7552 4.74284 10.8833 
2388 1 27.5088 2.09108 7.05517 
804 1 23.9146 7.28353 4.58109 
1889 1 23.5536 5.53508 9.59074 
1466 1 26.4681 2.05357 9.19819 
2940 1 25.5333 3.44288 8.02142 
2998 1 23.9135 9.05607 8.9009 
99 1 21.7759 6.18828 5.80837 
75 1 29.3951 4.0341 7.09657 
307 1 27.4464 4.87024 8.51443 
2006 1 31.45 5.42815 7.20023 
2896 1 33.7004 5.56956 5.38394 
20 1 31.9368 4.79176 9.73447 
695 1 31.7299 2.87174 7.80415 
184 1 33.4382 1.87841 9.48362 
3599 1 -1.12634 6.6579 9.39847 
158 1 36.1954 6.20427 7.40581 
963 1 -0.242295 5.02533 8.28636 
3958 1 2.95553 6.44996 6.12758 
1333 1 34.6589 9.94013 4.35283 
170 1 1.07607 7.40022 8.44688 
944 1 1.91901 8.00559 12.0826 
138 1 5.38721 6.42163 4.76874 
16 1 3.03367 8.30593 7.49016 
2322 1 1.25934 9.90651 8.63948 
1256 1 5.09682 10.1503 10.129 
762 1 7.37645 7.33982 7.52504 
23 1 8.03399 9.81941 8.65468 
1008 1 9.14692 8.87371 3.98262 
1322 1 5.43145 9.33025 7.36478 
1769 1 11.9758 5.51794 6.21797 
1650 1 10.8044 10.0188 8.43317 
658 1 12.4996 11.7437 7.1303 
3042 1 10.3257 10.8522 6.34927 
2354 1 11.3224 12.7247 12.2643 
2443 1 14.3318 9.16579 4.65623 
616 1 14.3904 6.7503 8.18114 
1658 1 12.3711 8.31064 7.99991 
2656 1 21.4795 11.0279 8.55835 
3951 1 17.6569 6.13129 8.65426 
2271 1 17.6757 8.25469 6.44185 
3545 1 20.5016 5.19045 8.50742 
2855 1 18.2637 8.60464 9.38789 
1588 1 23.3071 11.0223 10.0273 
603 1 22.3969 6.87929 7.69562 
2260 1 20.0874 7.06754 10.4575 
950 1 21.0258 8.63331 9.05957 
2982 1 26.8323 8.58425 5.21115 
2511 1 28.2132 8.47724 7.2943 
1126 1 27.1009 11.4494 10.5988 
3159 1 24.5935 5.92378 7.26276 
351 1 25.9327 7.58855 8.12938 
1673 1 27.4879 5.86505 2.32948 
252 1 30.649 7.80422 6.29646 
872 1 29.6104 6.4127 8.06357 
1222 1 27.9149 8.53122 11.8947 
1537 1 33.0975 7.60607 6.94263 
889 1 33.9874 4.92934 8.39984 
208 1 30.3949 4.06998 4.56559 
2551 1 35.1921 9.20087 7.12642 
627 1 -0.825926 4.93884 11.0473 
1216 1 -0.902763 9.48918 7.86042 
1079 1 1.61499 13.1993 8.4648 
861 1 2.61339 10.8221 10.6966 
2779 1 4.59123 14.3715 4.45694 
451 1 3.96511 12.4603 9.44938 
1415 1 7.9927 10.4896 6.44249 
1062 1 6.36572 11.7341 8.52261 
2132 1 9.06102 11.3496 10.4589 
2930 1 12.6044 13.7725 10.6891 
2251 1 15.091 11.0712 9.43199 
1481 1 15.7826 10.6791 11.8122 
356 1 19.5438 9.70261 7.8038 
2749 1 17.2193 10.6914 10.2111 
3338 1 19.2537 11.2517 11.2881 
3823 1 19.0243 11.2905 5.83907 
2003 1 18.9952 12.0279 8.82731 
577 1 22.5929 9.00921 6.58291 
1737 1 23.623 13.442 12.0608 
249 1 21.7111 12.3643 10.8689 
330 1 25.408 10.9539 8.24212 
480 1 25.1109 14.5177 7.94959 
3473 1 22.8963 13.631 9.27739 
712 1 25.2607 12.6918 10.0627 
1636 1 30.2029 9.86095 7.41415 
868 1 27.2823 13.0708 8.29602 
3151 1 27.3926 14.206 10.4746 
737 1 29.5466 12.392 6.68746 
1080 1 32.1677 10.4085 8.49476 
845 1 32.6983 12.9925 7.76014 
1281 1 31.2567 13.1738 9.30463 
759 1 35.0071 13.0738 11.4121 
2800 1 33.0811 14.4583 10.4284 
1247 1 36.2522 12.4213 9.51241 
1167 1 32.8353 9.7818 6.37011 
663 1 29.9177 8.17314 9.75767 
3290 1 36.3285 8.30343 11.4333 
2958 1 2.38158 16.3725 8.67974 
1506 1 20.7008 0.368286 12.6912 
643 1 2.26366 13.787 10.9267 
802 1 36.0542 15.0599 9.88118 
342 1 6.75125 13.9897 7.28271 
3891 1 4.8732 16.1128 7.70224 
2895 1 8.20121 15.1932 9.85946 
2315 1 36.5089 15.8797 6.7129 
1979 1 4.38785 17.2885 10.0301 
3887 1 11.3058 16.072 10.0276 
1975 1 7.61543 16.3709 7.15316 
2653 1 9.01081 16.1289 12.1128 
3229 1 9.31177 17.3304 8.29448 
1553 1 9.74818 14.9167 7.99463 
955 1 11.9549 15.8345 6.50679 
2172 1 13.2722 14.4229 8.41408 
2715 1 9.48489 14.4086 16.6474 
3469 1 20.7577 14.4309 -0.683426 
126 1 14.9075 13.3371 10.2419 
1773 1 16.3966 12.9142 7.90158 
358 1 16.2103 17.1133 6.60616 
2468 1 18.2082 15.1978 8.12452 
2825 1 16.2473 15.3711 3.20253 
2508 1 17.1364 15.3047 17.1332 
2278 1 20.3396 16.3727 10.6924 
655 1 20.3119 14.5707 9.08428 
3560 1 23.1368 15.5739 13.2011 
2917 1 23.5264 12.2953 7.33756 
490 1 25.6001 17.3944 8.24339 
2138 1 21.8004 11.3971 -0.136049 
553 1 24.3012 15.5618 5.87856 
361 1 28.2595 16.525 9.54339 
2573 1 26.2722 16.5891 11.8864 
1840 1 28.8882 17.39 12.0683 
2427 1 6.49563 10.42 4.38903 
2776 1 29.1107 14.7389 7.91104 
2553 1 30.2988 17.2406 10.3639 
1419 1 10.2386 10.0975 1.00039 
1400 1 31.3539 15.768 8.91142 
1467 1 14.2429 16.6534 16.2301 
876 1 -0.960295 14.1382 8.11824 
2387 1 33.9348 14.811 7.44617 
289 1 4.51315 3.44303 9.13376 
2528 1 2.03091 2.80645 13.065 
2169 1 0.480645 0.758864 9.15393 
1315 1 16.8239 6.25118 0.539644 
1070 1 7.73478 3.67653 8.97597 
1166 1 6.66759 2.18177 10.3613 
1775 1 7.70178 2.51135 13.0559 
2968 1 3.43143 4.67031 12.4924 
2269 1 29.658 1.12673 2.48208 
998 1 8.34436 0.444721 11.408 
2390 1 23.1785 0.946848 2.76559 
3232 1 16.4744 17.7121 11.4893 
1236 1 10.0495 1.6569 11.9943 
3284 1 11.1861 0.350785 13.3735 
983 1 12.2332 3.01875 13.2272 
2501 1 16.1362 4.53779 7.85693 
3214 1 12.8357 4.94352 10.9927 
3044 1 5.74099 16.1094 16.9124 
894 1 16.922 4.15248 10.6216 
847 1 14.9011 2.76167 10.932 
2663 1 19.6678 2.82219 12.8816 
2297 1 17.4235 -0.367161 14.3024 
3530 1 9.14111 7.96515 15.2127 
1617 1 23.6508 0.716497 16.1888 
783 1 19.4153 1.27087 14.4597 
1890 1 21.9375 0.413985 10.7258 
985 1 25.8398 0.604593 0.305321 
2750 1 25.9541 1.25564 11.7623 
3268 1 12.3412 16.9244 17.5384 
551 1 25.9399 0.485301 15.2067 
1453 1 11.4806 -0.986645 11.3441 
1667 1 29.4438 3.07548 11.9457 
3656 1 2.88285 14.5527 0.0658791 
61 1 34.9314 1.00911 11.2062 
1312 1 32.8707 -0.279351 11.5256 
1270 1 28.0201 9.42261 17.7012 
2405 1 34.4676 -0.0708961 13.0812 
454 1 1.19666 4.91512 12.4353 
2457 1 2.7826 1.16753 8.67907 
2731 1 0.0708792 3.11855 15.1467 
1549 1 2.10929 7.28965 15.3358 
190 1 2.379 9.7106 13.935 
406 1 6.43855 5.20477 7.32551 
2521 1 4.29951 6.69369 11.6121 
2517 1 5.4892 9.23389 13.487 
803 1 2.81541 3.00584 10.6969 
2545 1 5.28546 6.28535 14.0096 
1156 1 7.64327 5.00298 11.4548 
1652 1 5.42459 4.34471 10.945 
1007 1 5.95333 4.51699 16.2676 
1381 1 10.6893 5.80576 10.3523 
3011 1 10.0894 3.99148 13.3575 
910 1 13.2762 0.950567 11.4333 
1103 1 12.9936 7.46824 10.7824 
905 1 13.2621 2.19338 15.9317 
6 1 17.0836 2.13981 13.1094 
1412 1 14.8047 6.18225 10.4664 
2068 1 17.1798 3.02872 15.3754 
1325 1 17.0986 4.71576 13.8172 
1284 1 20.4974 2.23884 10.7178 
625 1 21.272 4.63511 13.513 
1173 1 24.0408 6.31839 12.2356 
2211 1 22.1881 2.84125 12.3437 
2254 1 24.4297 2.25869 13.9252 
1499 1 26.4394 6.02454 12.7727 
1137 1 24.6381 4.29296 11.1727 
591 1 27.2492 3.56993 11.6983 
3017 1 25.9522 8.32905 12.8952 
613 1 30.3229 1.1515 13.1037 
3399 1 27.6249 7.14275 9.55132 
1320 1 29.9277 7.51686 12.3536 
511 1 30.3863 6.11541 14.4718 
2705 1 28.9708 5.06921 12.8047 
2957 1 29.9828 5.9137 10.4432 
1301 1 34.6573 2.14107 13.9584 
21 1 32.8863 1.99307 12.311 
1431 1 34.0566 4.3445 10.9772 
1672 1 32.0774 6.85491 13.2949 
3644 1 35.7411 3.11139 12.1191 
570 1 0.553571 2.66211 10.6097 
3876 1 36.2262 4.17634 9.35762 
1610 1 -0.51471 7.05886 12.1911 
3040 1 36.8795 9.14392 13.6478 
2125 1 0.295073 8.91839 15.0979 
3754 1 -0.516381 10.5365 11.5505 
789 1 3.78543 9.50264 12.1149 
1249 1 1.17334 10.7937 16.2298 
2694 1 2.98258 8.08997 10.1808 
58 1 6.74823 7.50128 12.2157 
1105 1 5.99301 8.01399 9.62922 
1980 1 8.7567 6.21851 13.169 
379 1 7.33153 11.2881 14.9902 
2972 1 10.7592 7.94219 9.63204 
1341 1 8.89012 7.69498 10.708 
2890 1 10.5522 9.97202 11.5084 
2963 1 10.9672 6.24012 12.4371 
3137 1 12.243 11.1976 10.4541 
933 1 18.8184 6.78524 13.4694 
1721 1 14.461 8.95828 10.0381 
3788 1 12.7331 9.05886 12.0947 
936 1 17.0332 8.5051 11.2145 
2424 1 17.6963 6.2567 10.8 
1275 1 16.1924 8.10729 8.48145 
3178 1 17.6748 10.6269 13.2061 
901 1 22.2294 6.56521 14.9489 
2918 1 25.6858 7.4787 10.5349 
828 1 21.8562 9.60377 10.8811 
3034 1 24.3306 7.4084 14.1767 
937 1 26.7619 9.5198 9.13587 
1550 1 28.0693 7.31179 13.7176 
3825 1 29.8881 10.8787 14.3697 
1073 1 28.2389 8.89726 15.4298 
373 1 25.6162 11.896 12.6443 
1744 1 31.7302 4.06668 12.099 
991 1 29.1531 10.8919 12.1903 
630 1 35.202 6.29738 10.7931 
965 1 32.3159 8.14697 8.91376 
3160 1 33.1938 8.35498 11.5273 
668 1 30.8318 8.52598 15.338 
951 1 31.1106 10.4268 10.5263 
3547 1 0.203994 8.71953 10.4502 
2716 1 34.4741 9.73582 9.82586 
2232 1 31.1567 12.6876 11.5644 
1693 1 36.7823 10.1094 9.71663 
1802 1 -0.467149 13.627 14.907 
2928 1 -0.563667 13.2601 12.5231 
3528 1 -0.151221 12.3901 10.3057 
339 1 1.72725 11.8684 12.5841 
2675 1 -0.474103 11.0564 13.9572 
206 1 4.69993 12.3099 11.5881 
2693 1 7.41731 10.3715 12.2565 
1928 1 3.89613 14.286 13.4417 
2888 1 6.33323 12.4826 13.2279 
352 1 5.49699 15.7073 13.1489 
3132 1 9.50719 13.7691 11.0823 
127 1 6.91602 12.783 10.938 
700 1 8.9715 9.09252 13.0184 
977 1 7.55259 14.2979 12.8157 
3265 1 13.8021 11.6545 12.1448 
3701 1 11.971 10.7355 13.6225 
5 1 9.95581 11.3365 13.5157 
1632 1 14.5186 9.61084 13.7852 
3018 1 19.6309 8.75954 12.112 
529 1 17.714 12.7124 14.5987 
988 1 16.6251 12.9436 12.6462 
481 1 15.3903 11.7662 14.1705 
1134 1 13.2429 15.5687 14.2646 
594 1 21.4304 6.9446 12.6616 
2867 1 19.4711 12.5611 13.548 
3543 1 19.1546 9.64256 14.8045 
2294 1 22.891 7.58489 10.2828 
64 1 21.5053 14.6018 11.7599 
3433 1 23.4839 9.26399 12.4873 
243 1 21.4376 14.0311 14.2558 
2480 1 21.2991 10.5403 12.7863 
1884 1 25.9526 14.257 12.5858 
3576 1 25.3024 9.8064 10.8882 
1911 1 30.6285 13.3332 14.0213 
675 1 29.178 12.0287 9.56196 
1187 1 27.8463 13.0472 12.5487 
1160 1 28.7184 13.282 15.1936 
491 1 30.1129 15.0376 10.8023 
3155 1 29.4457 16.6457 14.724 
1112 1 32.4776 11.7666 13.5699 
1951 1 33.329 11.9507 10.0441 
2410 1 33.5424 10.6392 11.8512 
2524 1 -1.19797 16.1833 11.7083 
186 1 34.7613 15.6904 -0.285696 
1469 1 0.209338 18.1187 12.7875 
3354 1 0.585892 15.3929 10.3455 
2567 1 5.47629 0.755423 8.26277 
1179 1 0.933481 15.1135 12.8319 
816 1 5.39174 14.4319 9.54492 
3356 1 6.96434 1.13491 0.393254 
1029 1 27.5693 17.9172 7.48519 
3347 1 15.7731 2.06875 17.6369 
2717 1 10.0567 16.7032 14.34 
1456 1 14.4343 0.241305 16.8525 
2177 1 11.9687 17.1629 12.566 
2140 1 11.0545 15.0237 13.178 
36 1 14.3254 13.9682 12.4994 
743 1 34.4782 8.90469 16.6853 
410 1 20.0874 16.4483 2.56137 
1444 1 4.02163 8.75986 0.174007 
2205 1 15.8864 15.6729 12.626 
2783 1 18.1085 16.1088 10.6328 
539 1 18.3218 14.789 12.5876 
858 1 21.3623 7.29613 16.9788 
2069 1 17.819 13.3456 10.6438 
795 1 7.45393 14.0023 16.8969 
3014 1 21.2939 17.9006 12.3182 
3312 1 26.1594 13.2217 14.971 
1215 1 21.4031 15.5014 16.09 
755 1 19.1379 17.4327 12.3416 
1338 1 18.8116 5.74648 16.8595 
1195 1 -1.01306 4.8295 16.5088 
1590 1 24.428 14.9034 14.6667 
3534 1 25.3223 17.071 13.8924 
2822 1 27.7835 15.3127 13.6787 
292 1 27.1259 15.202 16.0038 
314 1 22.7167 16.4246 10.8618 
706 1 31.0701 15.5296 13.1066 
103 1 25.4681 15.1509 10.1899 
773 1 32.9359 16.6589 11.6909 
1055 1 31.071 14.8384 15.7163 
1081 1 35.7345 15.1805 15.0187 
1601 1 3.85883 -0.821469 10.0973 
1796 1 34.7557 16.7201 9.95229 
1252 1 5.13434 -0.980256 14.365 
891 1 2.14285 0.87089 11.179 
3558 1 36.8328 0.336086 12.4768 
2602 1 0.905831 2.42012 17.5375 
2537 1 2.22552 2.01402 15.195 
3741 1 2.09993 4.92276 14.8557 
1494 1 16.6592 1.36236 -1.09346 
1037 1 6.74948 0.331033 13.3946 
2442 1 6.72201 -0.0395832 15.9478 
1432 1 5.44758 1.81148 14.5086 
1083 1 3.78027 0.727133 16.025 
2920 1 9.39702 1.16099 17.1874 
2241 1 33.5262 6.94975 15.215 
3574 1 13.4166 1.0043 13.8216 
1294 1 15.7019 0.240724 12.5489 
1787 1 23.1428 4.02688 0.450598 
724 1 15.6597 1.48297 15.3666 
3789 1 29.9598 1.58622 8.10407 
899 1 18.5598 12.1903 16.8683 
2914 1 26.9809 4.9756 17.5268 
2112 1 9.70739 -0.307754 7.27734 
2426 1 0.855029 17.3547 5.45204 
1585 1 22.9208 2.81817 17.586 
1654 1 22.4472 0.49543 14.1618 
3407 1 -0.798825 15.2054 16.7298 
1356 1 33.1467 4.55383 17.5499 
1580 1 27.7869 0.136193 16.6874 
346 1 10.4988 17.0547 -0.860202 
1269 1 24.2935 5.81777 16.4125 
2620 1 27.7196 2.81808 16.5363 
1002 1 30.7967 2.58479 17.6196 
875 1 30.2406 0.714278 15.8363 
898 1 3.37877 3.27178 16.8462 
639 1 11.3023 1.6851 2.15097 
3608 1 34.0518 -0.555849 15.5945 
2777 1 35.1517 3.64659 16.0493 
472 1 32.318 4.3964 14.7581 
2568 1 35.8931 0.948871 15.5165 
2799 1 37.2755 2.64813 17.407 
460 1 14.8617 17.207 -0.723255 
838 1 -0.905495 -0.014314 17.1633 
124 1 17.7822 8.85447 16.5994 
2935 1 4.28118 8.70724 15.5654 
1961 1 36.1558 -1.01686 4.19796 
713 1 20.5136 17.8263 4.87998 
3778 1 23.7767 0.607592 12.112 
3385 1 15.1737 2.29886 8.13091 
1 1 32.2227 17.0644 15.9362 
3170 1 3.23363 6.91641 13.6764 
1403 1 4.04362 3.66181 14.5722 
1922 1 6.98576 4.83989 13.8468 
1059 1 1.55994 -0.881437 0.720446 
3821 1 10.1789 2.23223 14.8968 
3444 1 7.58185 2.00372 15.173 
1809 1 11.2397 0.267379 15.7847 
736 1 13.158 4.43606 16.9097 
2611 1 14.9819 3.64549 13.9113 
2431 1 19.3505 4.7448 14.932 
897 1 21.6613 4.8888 16.5283 
2415 1 17.0516 6.5938 15.577 
80 1 2.90016 11.1061 1.7654 
3046 1 26.4742 3.24292 14.0612 
567 1 3.01938 17.1184 3.87222 
764 1 21.0699 2.89333 15.0621 
946 1 25.3624 3.00252 16.4087 
1924 1 24.7217 4.56557 13.8657 
3976 1 32.9799 16.7683 6.8371 
3786 1 29.8918 3.43471 15.2374 
1099 1 27.7459 5.13951 15.187 
2196 1 29.63 5.20665 16.9223 
143 1 26.0614 17.2828 16.1396 
3842 1 34.6091 6.50887 13.2821 
2854 1 34.2302 4.10272 13.4174 
1960 1 36.4907 7.74349 15.7881 
1262 1 36.8432 4.73486 14.0136 
1014 1 1.15257 4.76535 17.8293 
753 1 27.704 -0.00611184 8.19405 
3598 1 -0.732533 9.75335 17.6628 
1057 1 35.7282 10.4462 11.8631 
2373 1 14.3909 0.0800366 9.49845 
1201 1 6.91646 9.76656 17.254 
290 1 4.17809 11.5958 13.8485 
1561 1 33.3333 17.9124 0.627309 
2548 1 2.57034 16.0741 17.4592 
1084 1 6.75642 6.79077 16.6073 
2613 1 4.4017 6.17593 16.0378 
583 1 7.02615 8.60022 14.9286 
2458 1 12.7948 5.08483 14.0567 
1614 1 11.0896 8.18325 13.9507 
611 1 10.0124 -0.471097 9.61173 
1473 1 15.2722 8.55016 15.809 
1814 1 16.668 8.26468 13.7606 
628 1 13.5895 6.98638 12.9683 
1316 1 15.9334 6.08386 12.3367 
338 1 19.7643 7.19654 15.4059 
620 1 22.8687 13.2236 16.1068 
2828 1 23.0638 11.9958 13.663 
1098 1 23.3431 10.4474 16.0664 
1903 1 21.4989 9.35607 14.8836 
325 1 35.3842 15.4683 12.6568 
3021 1 28.8855 7.3453 16.8499 
3960 1 26.1857 9.42054 15.3935 
3710 1 30.2831 10.1465 16.8668 
1791 1 27.2726 10.9828 13.8381 
3879 1 28.1186 11.2235 15.884 
2310 1 3.98461 -0.867292 17.9334 
1638 1 7.66319 2.91287 17.2135 
241 1 4.33062 8.5065 3.0401 
2564 1 2.33038 0.203395 13.9614 
1455 1 32.7592 9.56966 14.9181 
2150 1 0.243883 6.3035 14.9259 
3066 1 36.7505 -1.1682 14.2496 
1470 1 35.0145 11.3816 13.7083 
148 1 36.3311 10.8958 15.6741 
1307 1 -0.49744 12.824 17.0084 
2673 1 3.43453 11.2499 16.33 
83 1 1.75688 12.5333 14.8429 
3482 1 11.5661 15.4991 2.40629 
931 1 5.77789 12.1734 17.7682 
1317 1 6.3581 13.8759 14.851 
2453 1 8.89982 13.5158 14.5814 
3184 1 8.47897 11.926 17.4063 
1566 1 9.93784 16.9479 16.8359 
3127 1 7.44204 15.6574 15.0751 
2220 1 13.1244 8.04664 15.1962 
3940 1 11.0533 11.9491 16.5115 