ITEM: TIMESTEP
60000
ITEM: NUMBER OF ATOMS
4000
ITEM: BOX BOUNDS pp pp pp
-1.1826127550711512e+00 3.7332612755071764e+01
-1.1826127550711512e+00 3.7332612755071764e+01
-1.1826127550711512e+00 3.7332612755071764e+01
ITEM: ATOMS id type x y z 
1436 1 0.120739 4.15056 1.12244 
940 1 0.611425 17.0358 -0.830675 
3813 1 2.5466 2.80088 2.92027 
1260 1 22.5039 3.2336 18.0429 
2065 1 4.41111 3.53321 1.39552 
1229 1 31.3326 9.35208 0.798632 
1788 1 2.21543 14.5702 -0.768464 
2147 1 9.03358 0.961788 0.668221 
1216 1 32.3493 16.0801 13.3841 
2512 1 33.8045 14.7983 4.04469 
3120 1 11.1484 -0.0109338 0.990349 
724 1 10.7714 1.63057 3.30032 
889 1 33.6169 6.38238 -0.973828 
1880 1 1.50189 0.0977868 17.2702 
2620 1 29.5418 -0.697174 16.1892 
2709 1 13.7829 1.05533 0.358699 
3761 1 11.1221 2.54918 0.536067 
733 1 3.02025 14.267 1.37749 
12 1 20.1708 6.0406 1.06803 
1852 1 33.5763 10.7094 0.763218 
147 1 16.6312 0.734193 -0.0742412 
2658 1 24.2801 15.2419 17.9588 
648 1 18.219 2.71304 -0.0280954 
1772 1 16.0968 1.40465 16.026 
1070 1 21.1534 3.75869 0.417405 
1664 1 21.6123 1.51043 -0.289552 
1607 1 3.13992 8.52349 17.3907 
3548 1 12.3619 6.98914 14.7269 
995 1 32.9548 18.0543 16.6047 
888 1 25.1628 1.0767 -0.294709 
139 1 28.4791 -0.184144 6.17864 
855 1 28.4446 0.0940759 3.57605 
1387 1 27.0988 -1.1369 15.159 
701 1 23.9152 -0.503849 4.9039 
2111 1 14.9573 1.12594 5.8447 
3966 1 7.02687 5.41127 -0.916694 
902 1 30.6565 2.24137 0.703484 
1355 1 7.75024 15.029 16.9714 
2937 1 37.3355 -0.873759 9.91805 
2808 1 0.969033 1.92175 4.6924 
1672 1 34.1404 2.44681 1.15476 
1732 1 9.98725 17.5089 13.4135 
1238 1 33.9618 4.83977 0.809909 
3995 1 1.72624 2.77487 -0.00492962 
922 1 4.53138 2.56896 -0.951315 
446 1 26.4856 -0.446843 1.2117 
1514 1 4.22538 5.97047 0.853662 
70 1 2.0589 5.85594 0.0857207 
1781 1 9.60734 3.49428 2.00017 
1798 1 6.77152 3.2522 0.556856 
1717 1 8.77944 4.11358 -0.0104404 
1593 1 8.70851 6.09665 0.857992 
3956 1 10.9372 7.16729 -0.330032 
3362 1 14.4556 0.889543 9.4899 
86 1 34.4516 16.7841 -0.454337 
2986 1 12.9744 3.12634 -0.872951 
1480 1 26.2357 17.2597 14.6053 
674 1 15.2 16.2193 3.89316 
1083 1 34.014 2.06571 17.7319 
2553 1 31.3801 15.8526 15.8747 
582 1 16.2846 1.51199 11.859 
1955 1 17.1197 7.01432 0.19181 
1640 1 23.2196 5.33893 3.12639 
3906 1 35.0888 16.399 5.37278 
2408 1 20.901 4.71854 3.11072 
250 1 25.2627 9.55283 3.88161 
130 1 26.2017 3.31904 -0.543078 
2713 1 25.0064 5.16545 1.3719 
318 1 24.1766 5.67995 -0.975432 
1828 1 28.5294 4.36431 4.24538 
1689 1 27.441 4.31293 1.68629 
1269 1 26.5406 8.23633 5.25406 
1942 1 30.0774 3.38235 2.44069 
2102 1 32.0116 4.79101 -0.08562 
950 1 32.2483 6.85933 3.42863 
961 1 33.431 4.12712 3.59884 
1673 1 31.1077 5.33939 1.9542 
2854 1 34.7823 7.80219 2.34296 
654 1 32.2557 -0.382201 7.7834 
1671 1 4.84521 4.02092 15.9305 
723 1 36.3461 3.99427 3.47299 
2831 1 2.67778 10.0672 3.66842 
959 1 8.48869 16.9861 0.929662 
3580 1 -0.410111 1.50497 0.885053 
1444 1 36.5222 6.0362 1.3575 
1659 1 1.45003 11.971 1.28801 
3746 1 3.63677 8.87546 0.128028 
1403 1 30.1218 3.22729 8.30986 
355 1 3.59433 11.1205 0.693272 
2607 1 15.1162 14.571 10.0506 
54 1 7.04876 7.5754 2.66336 
2783 1 25.703 6.20363 17.7208 
2257 1 6.67482 5.27347 1.74186 
2182 1 11.0747 17.214 0.898243 
2608 1 32.5687 0.524025 10.4534 
2895 1 9.29544 8.22336 0.787234 
1758 1 32.3432 17.6379 1.82296 
3867 1 16.4525 12.4854 1.36644 
1008 1 14.4982 10.5025 -0.396274 
1613 1 14.8584 8.05482 -0.837703 
2494 1 15.7108 7.9104 4.16744 
134 1 19.2452 8.35943 1.26795 
1655 1 17.1126 9.1529 1.12139 
1066 1 18.7738 12.2044 3.03615 
408 1 19.8698 9.9581 3.04695 
1870 1 23.9755 10.8906 2.23223 
823 1 1.64875 10.0751 -0.279574 
1222 1 5.85124 0.864999 0.825247 
1787 1 25.3659 6.19947 3.44555 
689 1 22.7625 10.7384 4.35404 
1619 1 28.9465 7.91845 0.88917 
164 1 5.36491 14.4242 13.7355 
2161 1 23.7817 8.32848 5.29658 
3074 1 4.32993 -0.704655 5.53276 
1309 1 34.6092 -0.689438 16.151 
1855 1 10.3375 3.55914 18.0798 
2517 1 18.5188 12.1386 17.6007 
3159 1 32.7529 7.51941 1.27369 
131 1 28.4484 0.201977 0.55059 
3769 1 12.7084 10.9587 17.8325 
3994 1 36.802 16.8508 0.708969 
1598 1 26.0243 15.0694 15.6442 
956 1 34.1264 -0.840266 11.3303 
1336 1 -0.873557 11.4388 1.99963 
357 1 4.95849 13.2856 -0.336155 
1335 1 6.81331 4.68702 17.0114 
73 1 5.7766 10.0384 2.77488 
1146 1 6.90298 12.2399 0.616652 
1115 1 8.13099 10.9032 2.184 
3707 1 7.11206 13.3836 2.69224 
363 1 18.3233 -1.15749 0.121345 
2994 1 10.6335 14.8239 2.14858 
101 1 8.73552 10.3285 -0.515198 
3013 1 12.0532 12.3568 0.151132 
2264 1 6.42977 16.1688 15.2747 
2711 1 15.6961 16.0405 1.42968 
182 1 18.7318 10.8638 1.02582 
1016 1 10.8676 -0.222092 8.74927 
586 1 19.0264 9.78196 17.6917 
3806 1 22.1001 8.86693 1.68975 
1145 1 20.9264 13.206 3.96026 
3879 1 21.489 15.8178 -0.954979 
55 1 24.1946 12.283 4.77528 
1349 1 10.6527 -0.336487 15.3417 
3777 1 19.8054 15.2708 3.23055 
1947 1 23.0925 15.3027 0.91736 
1973 1 26.6105 14.1484 0.656736 
1117 1 26.6629 9.79214 0.33486 
3421 1 21.7452 12.5187 1.63179 
3557 1 26.5069 11.5293 2.25524 
395 1 -0.104705 16.1802 4.61976 
3245 1 26.3221 12.1353 -0.448295 
755 1 8.34148 17.1058 7.80638 
2359 1 29.9454 13.8331 -0.903889 
2315 1 32.7447 13.9777 1.95424 
3698 1 16.4788 1.33687 8.59516 
2758 1 35.7844 12.279 0.950805 
3007 1 36.7877 14.5368 1.3106 
2083 1 33.8713 16.1767 1.65793 
467 1 23.329 1.52962 11.2033 
179 1 3.55518 16.4299 2.4102 
172 1 -1.08115 16.0505 17.4048 
1871 1 22.0243 15.6559 14.3631 
1656 1 4.56487 15.817 -0.742282 
753 1 16.5052 17.2602 -0.96924 
918 1 5.50461 15.1201 1.46409 
1194 1 2.5921 12.7779 3.63064 
3675 1 18.7047 13.5788 -0.910035 
2426 1 8.03314 14.335 0.853922 
2491 1 5.56052 17.6947 1.3481 
452 1 13.1268 14.7518 4.15662 
849 1 9.88574 16.9581 3.18665 
2505 1 30.0185 17.1751 2.87745 
1367 1 9.79689 12.5964 0.0904438 
2497 1 12.8904 14.7026 1.80878 
2671 1 15.1125 13.9821 2.48403 
3588 1 27.0464 5.87256 -0.347054 
581 1 24.4016 -1.02257 2.19416 
713 1 17.8036 16.9245 3.14312 
169 1 4.64858 6.23064 13.3114 
1736 1 20.2713 17.3253 0.829743 
1707 1 22.4662 5.4552 0.665802 
599 1 24.9708 16.2058 2.16223 
87 1 22.3079 13.2257 -0.731886 
2029 1 18.68 14.6218 18.0367 
490 1 18.8874 17.6714 8.5544 
1513 1 28.3815 15.5328 0.416549 
981 1 -1.12442 16.4155 6.68701 
2919 1 2.32928 15.6 7.63011 
63 1 22.6943 -0.344811 16.5634 
3505 1 34.8337 14.7448 6.86725 
3645 1 8.79238 16.9486 15.319 
3805 1 30.2642 17.2298 0.147054 
1440 1 32.676 2.719 -0.940894 
737 1 31.7407 15.338 -0.00844733 
3295 1 36.5219 4.66764 17.9423 
1426 1 36.1652 16.437 2.94569 
862 1 12.7625 16.6975 2.88278 
2730 1 18.9082 16.2965 15.7684 
3625 1 16.6536 14.1977 -0.134253 
2532 1 10.7165 16.4025 7.3787 
2103 1 3.88393 1.59703 6.06274 
2106 1 -0.364468 2.81549 2.61197 
2119 1 1.28766 0.960611 7.06835 
2356 1 4.33716 1.01189 2.97885 
3281 1 5.99367 1.63475 4.82764 
734 1 4.69595 3.15505 3.93124 
1090 1 6.35785 4.11138 5.45455 
1014 1 1.49577 17.1991 18.0151 
574 1 9.6977 1.63527 7.33714 
817 1 7.56858 0.580233 2.66521 
788 1 23.7344 10.0622 0.0490414 
3634 1 10.676 0.451416 5.48709 
2241 1 20.2191 -0.333644 1.39172 
728 1 13.6354 1.92782 2.74176 
2493 1 12.8033 1.39357 4.55944 
2496 1 20.8757 7.8807 -0.672695 
3822 1 15.7462 2.74575 1.49256 
3396 1 15.9371 2.31657 3.77786 
2862 1 16.1186 5.69951 2.38914 
2920 1 17.9315 1.11972 2.01814 
2390 1 20.55 1.88231 2.17646 
2157 1 17.6589 -0.670689 8.59284 
2396 1 18.2042 3.22189 3.90611 
1232 1 22.5225 3.72815 5.30304 
255 1 10.311 17.8437 17.9797 
1177 1 10.2069 15.6216 17.6125 
262 1 2.28462 16.9198 0.487913 
185 1 23.5788 3.25917 0.372116 
2830 1 25.12 1.48535 2.06333 
2560 1 23.9414 -1.12338 7.19264 
1876 1 32.4127 2.35787 2.68069 
1745 1 28.5262 2.63244 5.83213 
859 1 26.7105 1.13332 5.76473 
2077 1 27.3424 2.11769 3.76866 
1584 1 25.9168 0.0564527 3.54826 
756 1 22.7091 0.288043 13.8479 
742 1 14.1404 7.1703 17.1822 
2522 1 30.3208 -0.402061 1.73461 
876 1 32.4793 -0.0303091 2.9701 
998 1 -0.696095 5.21099 5.10338 
3837 1 32.4932 0.425114 0.183647 
75 1 0.0789515 2.62709 6.61744 
2972 1 2.71267 3.4929 5.14669 
2475 1 1.09102 5.13679 7.19729 
2014 1 -0.0472038 5.74987 2.88542 
3409 1 3.78988 5.34545 3.13234 
3657 1 1.82146 5.39789 4.52699 
488 1 8.30798 5.72331 3.08128 
2218 1 5.85937 5.90464 3.97015 
3042 1 9.33464 3.4459 4.53877 
128 1 11.6333 4.85612 0.631209 
23 1 11.6135 3.93089 3.81576 
3691 1 13.446 6.20144 3.31777 
2767 1 10.2068 1.0893 11.1269 
14 1 18.6974 5.79936 3.37969 
80 1 13.4719 6.49079 0.905629 
3720 1 15.1132 7.7938 1.99157 
3839 1 15.0562 5.0322 -0.0885753 
2428 1 12.2987 1.90239 7.07297 
952 1 13.6412 3.81025 1.25655 
3122 1 18.2854 4.34733 1.49798 
2778 1 20.2569 3.0384 4.8014 
650 1 23.0855 2.99671 2.79568 
2328 1 21.5555 6.07846 5.04855 
1126 1 18.4019 6.93258 6.24685 
435 1 27.2871 1.90487 1.35023 
2049 1 25.6487 3.54006 3.89234 
3476 1 24.1449 5.38963 5.90237 
1532 1 26.2227 3.57056 6.32634 
3461 1 30.586 2.29822 4.82284 
299 1 31.2362 4.74102 4.50194 
1905 1 28.5171 6.78065 7.21459 
260 1 31.7034 3.42092 6.59371 
2375 1 26.9685 6.10242 5.16726 
2948 1 36.4287 3.57364 0.422713 
3440 1 30.274 -0.525166 4.63031 
2037 1 33.3168 1.7808 5.01744 
627 1 34.0554 7.22278 4.8981 
1386 1 34.9772 1.95898 3.43091 
381 1 36.438 7.95833 -0.337092 
3400 1 35.4895 3.05249 5.4967 
1084 1 36.4407 6.97983 5.43009 
1059 1 4.44818 8.00818 2.86701 
2319 1 1.74669 6.83532 2.29563 
386 1 0.526435 7.4111 4.66061 
1592 1 0.557667 11.4525 3.67651 
3439 1 7.26602 7.7015 5.54804 
1747 1 2.79289 7.55281 4.92689 
3790 1 4.78536 9.26717 4.96894 
3602 1 7.18217 2.97949 2.87279 
1601 1 6.78213 5.82901 6.88755 
3320 1 7.0321 8.23873 7.67612 
804 1 9.48497 8.18572 5.91481 
1256 1 10.6008 5.86397 2.73782 
2268 1 14.8595 9.92832 7.08236 
3876 1 11.191 8.53528 2.17814 
1885 1 11.5896 5.57793 6.12521 
352 1 9.30299 8.20977 3.29745 
936 1 17.2532 9.5288 5.59581 
729 1 16.5424 5.58679 5.00768 
3374 1 13.8313 6.72588 5.64278 
2982 1 16.2724 12.6312 3.8573 
3029 1 20.9068 5.00099 6.78514 
1272 1 20.8022 7.52961 3.06685 
2231 1 18.0061 8.08363 3.7776 
3200 1 23.5636 8.00309 2.85422 
292 1 22.0929 9.69522 6.97654 
3233 1 20.9095 8.23546 5.44626 
1835 1 23.6739 11.5896 7.44695 
2105 1 20.5279 10.688 5.7576 
738 1 28.9851 6.60789 4.90667 
1857 1 28.7374 9.97796 4.36615 
3520 1 26.2491 7.86777 10.0011 
2138 1 27.1825 8.94883 2.43285 
512 1 30.0378 7.97591 3.10159 
3343 1 32.3797 9.43324 3.42188 
3915 1 29.8081 6.03749 9.6807 
3518 1 31.8396 6.24426 7.65663 
2850 1 28.9912 10.4874 1.90398 
1181 1 33.4467 4.91228 6.37622 
1217 1 32.8955 11.9752 7.21147 
1563 1 1.5765 9.10836 2.03978 
473 1 37.2464 8.20985 2.91723 
1476 1 35.7357 8.736 8.37993 
3113 1 35.7817 9.67062 1.44171 
2716 1 34.3345 7.21246 7.36389 
1687 1 1.35002 9.572 5.49382 
76 1 -0.979915 9.41484 5.13204 
1684 1 0.775456 14.9642 1.10545 
2284 1 -0.984729 12.1828 5.41891 
1964 1 7.56718 14.2414 4.79362 
418 1 5.12594 12.7294 1.98986 
2262 1 3.26092 11.2976 5.53949 
2848 1 3.95403 14.0195 5.90363 
540 1 6.05204 12.5044 4.40962 
662 1 4.91759 7.08233 6.79332 
590 1 7.46654 9.6686 4.21121 
2456 1 5.04773 10.0078 7.85817 
1330 1 6.70426 10.6718 6.12763 
1716 1 13.9525 9.91516 4.59936 
2654 1 8.65723 11.649 4.70692 
49 1 10.5156 10.3013 3.69777 
3617 1 15.6678 10.1084 2.5643 
2825 1 18.4724 12.0567 5.58892 
1448 1 16.8073 12.6878 8.55089 
1079 1 16.1002 11.7434 6.03016 
1171 1 17.5889 10.3721 3.58722 
778 1 15.1242 13.7433 5.3208 
389 1 19.3618 14.4285 5.58646 
500 1 16.9694 14.826 4.10315 
1224 1 18.3974 16.6837 5.46586 
1560 1 21.7488 16.6526 2.6591 
2205 1 22.4708 17.6809 7.418 
1150 1 21.4466 15.4864 5.01697 
3471 1 22.191 13.4297 5.93359 
3447 1 24.3506 14.1485 8.56016 
2082 1 26.7564 12.5027 4.69899 
1966 1 25.4416 13.4595 2.65891 
2943 1 31.2851 11.4006 1.85654 
410 1 29.273 13.0224 1.53041 
1165 1 27.9094 13.9372 6.19777 
3534 1 29.1158 14.4645 3.39164 
2312 1 32.7264 14.1025 6.29855 
2977 1 31.8773 12.6002 -0.427059 
897 1 35.0888 9.17931 4.12339 
821 1 36.0416 11.3236 3.87422 
3215 1 33.4455 11.4666 3.44988 
2974 1 35.7017 9.86405 6.25238 
2764 1 35.1705 13.5529 2.92053 
1913 1 36.7488 17.2163 9.08458 
301 1 36.5876 14.1079 5.4535 
264 1 4.45658 15.2004 8.24662 
348 1 4.94691 15.0904 3.88195 
2191 1 -0.492698 13.7775 3.10115 
739 1 1.54941 15.1217 3.33161 
3739 1 9.70892 13.7331 4.10829 
2116 1 3.82307 17.4128 8.02945 
2242 1 10.4756 10.5482 1.22064 
2143 1 4.20816 16.5429 5.92047 
270 1 11.2061 15.2683 5.54892 
140 1 2.9992 5.10686 17.8498 
2946 1 11.3895 12.361 2.63471 
2027 1 13.8844 12.387 3.86796 
1912 1 16.2201 16.1088 6.06729 
53 1 14.3472 17.0054 8.48227 
3071 1 16.1055 -0.821234 16.416 
3897 1 13.6157 12.2364 1.66291 
3984 1 20.2907 14.7826 0.584367 
3479 1 29.2439 3.38875 -0.725477 
544 1 28.5774 1.23206 7.76628 
3436 1 35.9591 14.6318 -0.765455 
328 1 30.4085 0.727447 9.72916 
1752 1 22.984 14.0463 2.94644 
1754 1 24.1701 16.4933 4.22847 
1034 1 26.4169 16.0155 7.3293 
3559 1 35.7515 5.59361 -0.891125 
2530 1 24.3432 14.4721 6.11713 
2555 1 6.37434 10.3636 0.222147 
3106 1 30.7302 15.4037 2.03937 
2055 1 28.547 12.8502 8.29242 
28 1 31.6903 15.6622 4.39499 
3708 1 26.4153 15.2473 4.5551 
2004 1 0.811485 -0.233148 0.0751452 
3937 1 34.8372 12.6034 5.43572 
531 1 29.6606 -0.978252 8.05625 
628 1 32.4813 17.7709 6.33697 
356 1 13.8363 14.2971 -0.728439 
790 1 12.695 9.20744 0.315021 
243 1 20.2761 -0.756951 17.2623 
570 1 36.4358 2.61805 7.91961 
2136 1 3.41272 -0.502868 10.4939 
159 1 27.5842 5.85646 16.0094 
1853 1 4.56687 0.808427 8.4856 
1559 1 24.2929 15.233 -1.07095 
2666 1 13.4065 16.675 5.98921 
3889 1 25.986 7.45214 0.866791 
218 1 29.2725 5.66181 0.170825 
616 1 7.41961 3.98511 9.41922 
3589 1 8.18155 0.285395 5.1776 
2060 1 21.0116 2.34008 12.6931 
2228 1 31.0384 7.43965 -0.633285 
2890 1 12.2524 3.71134 8.48786 
2087 1 23.4147 13.1906 17.5238 
2924 1 15.034 3.02695 10.0764 
3655 1 15.2073 -0.385094 1.79419 
1984 1 9.27846 15.3072 -0.820917 
1394 1 28.4541 11.1989 -0.471951 
1359 1 14.6472 2.79784 7.67604 
2554 1 20.0535 2.59364 17.7745 
1437 1 16.7305 -0.0293629 6.56191 
238 1 16.9274 4.2099 9.69995 
3659 1 3.20532 1.33082 0.876531 
3682 1 33.3571 16.9969 9.68715 
2144 1 22.8368 0.644658 1.75302 
3261 1 20.2258 0.449564 9.07512 
2865 1 19.8825 0.862066 6.11113 
2961 1 22.6729 1.52217 6.86183 
3623 1 24.4077 1.6764 5.27222 
1801 1 24.517 2.62608 8.90812 
1137 1 34.0869 12.6891 17.0894 
3201 1 31.4322 2.20773 11.2998 
3789 1 27.1081 2.62343 8.58995 
1400 1 27.2967 15.5496 17.6302 
2169 1 26.3178 3.06135 11.0361 
3594 1 0.40357 16.9141 15.5858 
720 1 32.7979 2.43748 8.10291 
2394 1 29.1204 3.128 10.7332 
295 1 28.4533 8.71445 16.4153 
2447 1 2.39528 -0.781496 7.81487 
50 1 34.846 0.743265 6.7871 
1245 1 36.2818 1.22518 12.0047 
3872 1 36.1437 -0.955837 5.91334 
1121 1 7.97746 -0.902113 7.13022 
885 1 2.4739 1.42863 9.13405 
1274 1 3.3364 3.2396 7.56036 
3481 1 12.2501 -0.557727 6.91707 
1662 1 37.1324 0.302438 7.58778 
2599 1 3.78067 3.49518 9.8189 
524 1 6.38395 -0.551409 9.36938 
2259 1 4.17506 5.12769 5.8331 
542 1 3.62855 6.05025 8.45582 
1650 1 5.6446 3.80357 7.94254 
2453 1 8.47959 1.37386 9.43612 
16 1 5.89294 6.083 9.23249 
765 1 11.3275 7.46558 7.27136 
3612 1 6.84258 1.68272 7.52377 
3105 1 11.7734 7.37107 4.48769 
215 1 9.12076 5.56487 5.44994 
1060 1 8.38587 3.86769 6.80904 
3509 1 10.9331 3.35333 6.16014 
3152 1 9.4476 10.7279 6.72981 
928 1 16.3833 2.95386 5.71653 
3835 1 14.8743 3.99259 3.36079 
3565 1 13.87 4.24619 6.23673 
36 1 18.2576 2.60209 7.56961 
58 1 14.8156 5.3376 8.30279 
809 1 16.3485 6.73085 9.43106 
265 1 19.093 4.83688 5.55476 
553 1 18.9235 5.41558 8.89662 
1280 1 22.6669 7.08141 7.18183 
1164 1 25.9845 6.94759 7.1033 
2270 1 23.1232 4.38621 7.7171 
3755 1 20.6109 2.82612 7.66024 
402 1 25.7047 5.78552 10.8846 
702 1 27.7796 4.69961 11.6666 
1459 1 26.0262 4.67292 13.5875 
2128 1 27.7067 4.84553 8.94623 
2495 1 29.8933 5.20525 6.81793 
2592 1 32.0581 4.47213 9.28189 
2646 1 30.8956 1.15864 6.69743 
283 1 33.6697 6.86888 9.596 
506 1 34.5846 4.78555 8.79202 
252 1 0.0706443 0.831954 9.61087 
34 1 35.9439 6.74297 9.50248 
1751 1 0.134482 3.50825 9.27682 
3482 1 0.40812 9.51117 7.3598 
403 1 -0.752471 7.27526 7.19078 
711 1 1.78619 7.46274 7.06309 
3427 1 3.3915 9.03883 6.57161 
1443 1 5.52355 11.8957 12.2389 
643 1 4.89724 11.2738 9.77825 
3931 1 1.81596 5.09226 10.2134 
2443 1 5.32268 8.38124 9.63618 
1571 1 8.8214 6.6153 8.1152 
3224 1 8.06793 7.64346 9.80321 
290 1 7.55092 9.80573 9.2685 
1975 1 9.94721 9.32875 8.80226 
583 1 14.6426 11.7506 9.64479 
3005 1 12.851 6.52491 8.45335 
3227 1 13.156 8.80248 8.23357 
241 1 15.2478 9.21592 9.27167 
1789 1 16.0208 7.51469 7.26677 
2574 1 19.2592 11.0179 8.0339 
3871 1 15.6558 8.35869 12.1127 
2454 1 17.0119 4.6139 7.5522 
569 1 18.2989 7.73486 9.02906 
2867 1 20.219 9.03356 9.31887 
33 1 19.2363 9.39759 6.93201 
2039 1 21.809 7.30329 9.86722 
1154 1 20.3684 7.09309 7.7694 
249 1 19.8106 8.4669 11.2053 
1124 1 24.7511 8.87318 7.7842 
3823 1 26.5414 7.11563 12.7691 
3136 1 23.9732 6.7078 9.2583 
3719 1 24.6474 10.8181 9.59354 
951 1 27.5864 9.08823 7.17879 
3473 1 30.7061 8.69953 10.5949 
1058 1 33.2374 9.02278 8.68954 
3989 1 30.8833 10.696 4.82487 
2565 1 32.9506 9.841 6.01671 
2962 1 30.8356 8.68002 7.88895 
1856 1 34.0768 9.67427 13.4739 
3175 1 37.1563 5.07669 7.72146 
683 1 34.356 8.89477 11.0463 
3155 1 -0.673784 11.2657 8.28375 
2588 1 0.535496 13.7892 7.85655 
491 1 1.68478 7.70708 11.4721 
2091 1 1.13295 11.9357 6.27521 
1027 1 1.42759 10.25 10.0761 
1421 1 2.8897 11.3983 8.33054 
378 1 4.42241 13.6736 11.2465 
848 1 5.32452 12.3779 7.33617 
2132 1 6.09437 13.7728 9.33494 
379 1 2.84783 13.6359 9.53906 
816 1 7.5127 12.212 8.49234 
996 1 7.82154 11.7728 10.7222 
3583 1 11.6887 12.6856 5.06485 
1419 1 10.911 12.8025 7.48838 
444 1 17.1101 10.1092 7.94137 
2272 1 13.0149 13.2169 9.14836 
1517 1 12.454 11.398 11.4081 
156 1 20.324 13.6884 7.43098 
1155 1 18.3916 14.8501 8.36004 
2979 1 17.1009 13.8509 6.24557 
3019 1 17.3051 9.59364 10.6278 
2998 1 21.5322 11.7633 8.44636 
277 1 22.7151 9.52514 9.94909 
2886 1 20.0098 13.4144 9.94715 
1414 1 22.5725 15.2113 8.10892 
1965 1 22.2565 12.7707 10.3246 
3123 1 25.9402 12.7483 6.89358 
160 1 28.2046 9.70519 11.089 
513 1 25.3702 10.3109 6.27108 
1636 1 26.1804 12.2338 10.6801 
528 1 28.9292 12.2256 3.80041 
1581 1 31.0995 13.5645 8.11764 
303 1 29.4363 8.75075 6.11932 
167 1 27.079 10.8797 9.1395 
351 1 28.6926 7.86515 9.05443 
2258 1 31.4712 7.74905 5.408 
1211 1 31.6498 12.8566 4.1376 
332 1 33.6141 13.1048 9.05598 
3954 1 34.6033 10.9905 8.28024 
2710 1 36.2177 12.4835 9.93211 
2888 1 31.4746 12.8238 10.2165 
763 1 36.9989 14.6693 8.29217 
2701 1 0.254874 16.6553 11.1662 
3866 1 3.34734 10.2499 15.3442 
3832 1 0.791518 12.43 9.86525 
925 1 0.558006 14.3177 5.6628 
1001 1 1.63271 13.8479 11.9011 
1413 1 34.2041 16.3619 15.2699 
3022 1 2.44346 16.4249 10.8511 
3920 1 7.78424 14.7767 8.01857 
1423 1 13.978 -0.643709 4.30523 
1680 1 8.90541 15.5169 6.08487 
802 1 12.3892 10.0121 6.29533 
2656 1 12.9304 14.4535 6.57752 
2140 1 13.2071 12.2059 7.06671 
3733 1 15.0908 14.5696 7.78727 
1917 1 16.93 16.4444 9.32294 
3391 1 18.3159 7.83521 16.5816 
621 1 17.4637 14.0388 10.3913 
3752 1 20.2053 15.9718 7.15789 
266 1 32.5453 4.73317 15.6222 
2183 1 19.0122 0.409978 3.954 
712 1 20.752 16.6511 9.33946 
3437 1 18.4025 14.275 13.8386 
3751 1 18.3648 8.67458 -1.18924 
3660 1 26.2167 -0.285173 12.9057 
2362 1 24.5299 16.5733 9.06901 
443 1 26.7711 14.2935 8.74197 
2235 1 25.3066 16.4167 11.1699 
42 1 27.3266 14.9427 11.0449 
1823 1 29.1664 15.0261 7.76564 
2524 1 29.0023 11.1671 6.32373 
2771 1 30.3469 14.3397 5.73393 
3376 1 32.397 15.9064 7.86699 
1833 1 35.9921 7.93428 17.1387 
1273 1 21.5687 0.955727 4.26845 
221 1 32.8166 15.1072 10.6395 
2197 1 30.2348 17.6708 5.63686 
3949 1 36.0708 12.6502 7.30279 
2168 1 36.1417 -1.11518 13.3845 
1113 1 -0.915788 17.8089 12.6425 
3090 1 0.476777 15.3129 9.28214 
1729 1 0.291336 16.87 2.29688 
649 1 1.7532 -0.663157 12.3951 
3285 1 18.3084 16.2995 0.524409 
1523 1 28.2864 1.04202 17.3369 
2837 1 16.8209 5.81932 17.5594 
595 1 4.12245 2.00851 12.3886 
3741 1 5.53337 0.186736 12.0784 
3180 1 0.362353 17.85 8.10632 
2735 1 8.42105 1.79632 13.3971 
309 1 34.7482 17.2128 7.69217 
211 1 8.01541 0.146114 11.7143 
934 1 14.717 10.8617 16.4551 
1647 1 11.3384 4.99898 14.2131 
730 1 10.3311 3.72047 9.93027 
3595 1 12.5052 3.76941 15.8194 
795 1 14.4851 2.90175 12.7827 
3926 1 14.3014 0.555384 12.3727 
1809 1 12.4001 2.58817 10.9445 
545 1 16.221 6.27925 13.2207 
537 1 24.0587 12.9027 0.623028 
2458 1 18.0566 0.0184934 10.7604 
3312 1 18.3825 2.44618 10.2518 
894 1 13.9507 1.32132 14.8798 
2781 1 21.7955 18.0225 4.50856 
349 1 23.7618 3.11688 13.1194 
112 1 18.7223 1.92354 12.6139 
155 1 25.9423 0.747436 10.9041 
652 1 22.46 -0.0940261 9.55202 
3251 1 24.631 3.54198 16.8757 
1661 1 26.2336 0.389287 8.16648 
64 1 28.084 0.893859 9.99675 
799 1 26.3614 2.1821 13.4714 
1235 1 29.7192 0.41137 12.0746 
168 1 12.1353 2.72196 13.1401 
2368 1 35.8166 1.24985 9.73214 
2602 1 12.5126 -0.100418 2.71279 
387 1 35.1842 15.0615 9.31363 
3158 1 33.2198 -0.819652 13.6631 
1263 1 -0.214124 4.91286 11.7725 
2964 1 1.39289 3.60514 12.4857 
1013 1 1.94383 4.68069 14.9174 
18 1 19.2379 5.03742 -1.02986 
1768 1 36.2826 4.23762 10.4122 
3059 1 5.44774 4.44438 11.2873 
1441 1 3.82856 3.76419 13.8102 
127 1 5.97286 3.03721 13.4429 
2957 1 3.76183 6.36051 10.7338 
3448 1 5.8761 2.20272 10.1853 
663 1 8.78868 5.48035 10.4717 
932 1 7.58962 3.65839 11.6121 
1045 1 10.3139 4.87605 7.81801 
61 1 9.41952 6.96314 14.5773 
893 1 10.9379 6.90011 10.0849 
2955 1 12.8699 6.77657 12.2445 
1721 1 14.83 5.66275 11.3165 
306 1 13.7818 8.28024 10.7945 
1739 1 14.2707 5.11988 14.5725 
3865 1 19.7777 6.25743 11.5087 
2637 1 16.4796 3.05073 14.58 
203 1 18.7548 4.31837 13.706 
3566 1 21.1192 4.91841 9.2848 
3785 1 21.8668 6.89157 12.3816 
3574 1 19.8884 3.94831 11.3472 
3667 1 23.4887 4.5954 10.44 
384 1 21.4258 2.74181 9.89406 
1431 1 25.4905 4.95246 8.46859 
2351 1 24.26 8.4114 13.6379 
468 1 26.6958 3.91782 15.8671 
3928 1 28.9791 2.43947 12.8466 
376 1 28.8362 0.590231 14.3554 
2322 1 31.5919 6.81653 11.1362 
667 1 31.9578 6.27164 13.5077 
1057 1 35.0916 3.45254 12.7423 
3486 1 34.0351 2.90293 10.056 
1836 1 31.6735 1.06847 13.4603 
1667 1 32.62 3.73198 13.2389 
3696 1 33.8456 4.89281 11.1601 
1261 1 -0.508597 2.69828 11.2553 
78 1 37.1419 6.30717 13.545 
3974 1 -0.543087 7.53676 11.2746 
2387 1 1.93566 6.08482 12.9113 
3401 1 -0.33939 6.12275 9.43184 
2741 1 0.439589 6.36636 15.1275 
2366 1 3.46858 9.01251 10.7561 
1877 1 6.2641 7.1924 11.4431 
1896 1 6.03543 9.82931 11.4349 
2789 1 4.28 6.3905 16.1738 
1381 1 2.74679 7.51902 14.3209 
2251 1 8.39212 7.70304 12.2973 
453 1 9.00698 9.66524 11.3149 
1138 1 10.4131 12.3067 10.6545 
1416 1 7.46262 10.4449 13.1548 
732 1 8.9218 9.55475 14.3464 
3499 1 11.536 9.19066 11.3271 
740 1 10.5059 8.09101 13.1199 
3160 1 10.8126 10.5754 13.0267 
2558 1 11.9359 12.7403 13.89 
2508 1 15.5118 12.9737 11.3936 
2410 1 13.028 9.71571 13.1478 
233 1 22.1816 13.6789 12.5506 
2468 1 16.7675 4.02142 12.5376 
1712 1 19.0993 10.3013 12.4957 
183 1 22.0453 4.51564 12.3887 
2429 1 20.6374 10.806 10.7525 
1800 1 20.1093 12.7623 12.3298 
2068 1 24.3417 7.44725 11.5526 
2227 1 22.8091 10.1558 12.5218 
1539 1 24.1744 6.01412 13.4676 
1538 1 28.6977 6.95452 11.5305 
3398 1 28.3537 5.84727 13.7264 
119 1 30.4556 8.00188 12.979 
2536 1 27.4609 11.1306 15.4694 
1247 1 32.4674 8.71041 12.3554 
502 1 30.8746 11.3401 12.349 
2714 1 35.8772 6.44676 11.7382 
836 1 -0.339292 12.0491 12.1659 
3758 1 34.9198 7.73136 14.7744 
331 1 32.3771 10.6907 10.4848 
828 1 36.1357 8.68951 12.842 
976 1 2.21878 10.1458 12.9582 
3990 1 1.39651 11.5136 14.9283 
1120 1 2.9419 11.8302 11.3516 
1360 1 4.45528 9.5657 13.1648 
2545 1 3.34076 12.7025 13.2557 
2207 1 8.73845 12.893 6.6511 
984 1 8.76396 12.3778 13.3795 
3103 1 11.9405 16.7428 12.0537 
1693 1 6.94457 13.9468 11.99 
1887 1 11.9712 10.8306 9.14589 
2134 1 8.61012 13.6968 9.99886 
2753 1 9.8457 14.5854 12.5936 
931 1 16.5983 15.9572 15.2876 
1492 1 11.543 14.0007 11.1999 
3541 1 13.805 14.2375 14.4197 
1053 1 18.2398 11.5688 10.057 
3860 1 15.6534 14.55 13.1286 
2107 1 20.6164 15.1626 11.5146 
658 1 16.8844 11.2782 12.1489 
1297 1 15.0621 12.8077 16.628 
3469 1 24.2633 12.1311 11.8494 
1929 1 19.1452 11.8447 14.309 
2290 1 22.8354 12.5728 15.3938 
339 1 24.0491 13.338 13.7568 
276 1 25.1215 10.9456 13.7413 
2822 1 25.7116 9.70258 11.8302 
1041 1 27.9123 13.4156 15.6671 
2398 1 29.0777 12.9139 10.4986 
2451 1 27.3945 11.7912 12.6879 
964 1 31.4826 10.6584 8.36572 
2117 1 29.2852 10.7084 9.27006 
433 1 30.626 15.3095 9.64109 
3558 1 30.2146 14.3438 12.0759 
2208 1 -0.791344 8.61924 9.52239 
2152 1 36.3361 10.219 10.204 
107 1 32.4887 13.6204 12.792 
1379 1 33.9068 13.8284 14.6736 
2030 1 1.10701 13.2898 13.9786 
813 1 -0.850627 14.2024 11.0509 
269 1 36.5515 16.2091 11.5902 
2492 1 3.70644 16.4941 15.1627 
3237 1 2.09617 15.1672 14.6921 
2814 1 5.53644 15.7238 10.2757 
1782 1 28.562 16.2403 5.01683 
1005 1 0.247272 15.4885 13.2204 
3716 1 5.0988 10.958 16.9548 
3329 1 5.85674 16.7835 12.7078 
2470 1 10.5438 14.7238 8.90803 
916 1 7.9344 15.8207 13.3269 
745 1 16.9894 11.1478 -0.689971 
2156 1 10.1749 16.4528 10.3786 
2224 1 12.3336 16.4658 8.99065 
3815 1 14.4806 16.4999 13.4557 
3117 1 14.3919 11.7707 13.3012 
1893 1 11.3467 15.1974 14.5431 
1153 1 19.9333 16.9107 13.6244 
2662 1 13.3014 14.5303 12.2161 
4 1 15.9847 16.3795 11.4461 
2479 1 18.3823 16.1113 11.0348 
760 1 27.426 17.2996 9.07548 
2423 1 6.34441 16.7044 6.38027 
1737 1 20.721 13.8268 14.7709 
938 1 23.8211 17.5424 14.7733 
258 1 24.1428 14.5704 11.3716 
3021 1 25.9829 13.5623 12.7636 
706 1 22.3525 16.5324 11.3841 
1215 1 24.2734 15.7734 13.1226 
1719 1 28.7714 15.991 15.7586 
22 1 32.3676 10.7115 17.29 
3528 1 29.9081 16.7471 13.1087 
623 1 28.4307 14.6252 13.7761 
103 1 27.3928 16.821 12.8309 
3044 1 29.1021 16.8249 10.6134 
3004 1 27.5624 16.0814 2.47454 
3916 1 35.0641 13.7875 11.7172 
1888 1 34.7402 15.7098 13.3791 
1 1 36.7418 16.4683 14.5124 
911 1 36.4374 12.7601 15.8817 
607 1 -0.535739 14.5943 15.6944 
2652 1 0.732958 2.47046 15.3421 
3149 1 23.6878 7.83844 0.259432 
256 1 -0.189957 0.55765 12.9159 
95 1 1.34708 -0.030446 14.7496 
926 1 5.49096 1.63315 16.0391 
3887 1 13.5896 16.1779 15.5137 
3195 1 29.6414 17.2685 7.90557 
2933 1 24.2471 -0.642587 10.9475 
2498 1 8.63599 0.405812 16.6685 
1869 1 8.17272 2.72914 18.0084 
2580 1 0.887773 0.436561 2.43066 
679 1 10.371 2.31563 14.8844 
1486 1 0.0121628 12.09 -0.47649 
3408 1 12.8685 4.74048 11.3512 
3512 1 6.88312 0.040515 13.9547 
2900 1 26.0169 16.4794 0.151095 
2682 1 33.1063 -0.454156 5.44695 
910 1 16.7979 10.8424 16.5828 
2178 1 14.2159 16.8021 -0.150601 
1304 1 7.4049 13.9573 14.6879 
3275 1 2.09812 15.065 17.2533 
783 1 19.8304 0.155859 14.0729 
3342 1 16.6093 0.605788 13.7186 
2806 1 34.8771 -0.436637 1.46206 
1323 1 18.8163 1.02456 16.0691 
2386 1 2.86064 -0.642012 3.05964 
2001 1 -0.621162 9.70524 -0.0348349 
2935 1 35.4832 14.9614 16.3303 
1107 1 21.042 1.77091 14.9998 
796 1 20.9443 10.1177 -0.161076 
2006 1 -0.565374 0.190628 4.81131 
1003 1 25.4342 0.506421 14.8266 
1223 1 31.2314 17.2276 11.3152 
1663 1 33.726 1.39211 12.0662 
2195 1 31.9914 0.0587151 16.3614 
3892 1 35.3166 1.64424 -0.712488 
1898 1 21.0326 4.28298 16.2848 
1133 1 -0.666796 2.33902 17.343 
2978 1 20.5841 0.273514 11.5348 
137 1 36.5158 1.94573 14.1156 
2596 1 23.2732 17.3946 17.5137 
3869 1 1.76379 10.6479 17.5128 
457 1 16.4053 12.1982 14.3462 
2175 1 0.263951 4.68856 17.317 
1891 1 37.2805 0.0948529 15.2003 
2988 1 1.64511 1.24233 11.1861 
1493 1 18.2484 -1.09539 12.7957 
3266 1 2.99876 2.36483 16.4281 
2738 1 4.27786 0.783508 14.2452 
312 1 -0.37974 6.90919 17.385 
2747 1 9.10748 4.41113 12.9983 
227 1 1.84676 6.84667 16.9649 
3315 1 7.56356 2.8553 15.4547 
744 1 6.66768 5.19028 14.629 
3189 1 34.5996 6.1277 17.442 
3826 1 10.41 1.09084 17.8811 
3370 1 10.4353 5.78333 11.9891 
3124 1 9.10061 4.86711 15.5256 
1827 1 11.1693 5.6545 17.0554 
1635 1 16.9641 5.35898 15.069 
594 1 14.678 7.39807 14.827 
1112 1 18.1783 3.60888 16.4245 
406 1 15.7051 3.67493 16.7073 
905 1 20.7969 6.8433 16.8051 
3958 1 23.3058 5.40678 17.7074 
442 1 21.3891 -1.00584 3.27076 
2665 1 27.9946 6.53733 2.55305 
2503 1 23.8183 1.84758 15.6056 
656 1 20.9614 5.34536 14.4342 
3735 1 4.28563 -0.786746 16.6093 
3960 1 23.2084 4.62367 15.0445 
2411 1 31.5238 2.33306 15.6364 
1685 1 11.3054 17.7693 15.7835 
226 1 15.3245 -0.906812 8.93572 
1569 1 33.7564 1.45662 14.6272 
2531 1 30.2139 4.45406 14.3365 
2317 1 34.554 5.15397 14.6718 
1118 1 35.6461 2.89146 16.1211 
1850 1 36.6757 -0.0459608 3.10126 
2668 1 -0.738605 4.11642 14.4413 
2535 1 0.485795 8.71738 13.477 
2644 1 36.4971 5.55206 15.8682 
1669 1 37.2245 8.51345 14.9041 
3338 1 6.47049 7.84313 13.9656 
1333 1 5.90551 9.52691 15.5112 
2003 1 6.61979 7.099 16.3608 
2893 1 10.0648 10.5865 17.5553 
1967 1 17.9958 14.3207 1.67328 
1389 1 15.7004 15.0418 17.2927 
315 1 16.9907 17.9216 7.2132 
736 1 9.57567 7.44319 17.1671 
3162 1 12.698 11.1543 15.2283 
3463 1 10.0201 11.5437 15.4221 
725 1 10.9967 9.42648 14.9747 
201 1 17.3612 7.91295 14.4976 
629 1 19.9359 7.74368 13.691 
2871 1 34.8142 10.2478 17.4123 
1458 1 17.8339 7.53085 12.2944 
845 1 13.5194 8.90692 16.0269 
2358 1 5.3613 -1.01843 3.5875 
3900 1 0.134679 6.99782 0.582453 
3921 1 20.6833 9.94426 14.5431 
1173 1 22.7299 6.91636 14.7555 
2715 1 11.8628 -0.0499101 12.7756 
3088 1 25.0244 6.15291 15.5751 
251 1 20.6558 12.0575 16.4041 
2776 1 26.9593 8.46872 14.3886 
3286 1 3.34997 15.4943 13.0707 
716 1 29.6098 7.23514 15.1796 
2590 1 30.3885 4.70446 11.7183 
1384 1 27.1958 11.6789 17.6672 
1170 1 31.7273 6.83071 15.6951 
3037 1 29.0502 3.32762 16.7487 
3018 1 29.2068 9.83197 13.5536 
1713 1 25.3492 12.5903 15.7113 
212 1 31.9674 9.10979 14.5585 
630 1 35.5413 10.2761 14.9637 
2437 1 30.8906 8.4645 17.1144 
1906 1 30.7415 14.1569 14.2143 
1590 1 30.2359 17.1378 17.379 
1720 1 36.0524 10.9972 12.7538 