ITEM: TIMESTEP
20000
ITEM: NUMBER OF ATOMS
4000
ITEM: BOX BOUNDS pp pp pp
-1.1844407810619622e+00 3.7334440781062604e+01
-1.1844407810619622e+00 3.7334440781062604e+01
-1.1844407810619622e+00 3.7334440781062604e+01
ITEM: ATOMS id type xu yu zu 
810 1 1.32652 3.13508 4.7888 
387 1 23.8986 -0.256248 7.29426 
2290 1 0.0981689 41.6615 1.02756 
138 1 -2.25099 3.36286 2.19628 
329 1 1.77812 -0.0372712 1.8664 
1583 1 21.0078 6.01792 37.7918 
447 1 8.58819 1.1952 1.64573 
2765 1 4.04452 43.9187 3.95493 
2766 1 3.78586 39.5657 1.11238 
692 1 11.8196 -0.706374 16.1826 
2322 1 10.0243 41.445 -0.0291331 
135 1 14.0251 5.44611 0.458527 
228 1 33.1132 -0.193589 13.5053 
2729 1 14.0456 38.2431 1.60373 
2112 1 17.2716 40.2978 3.42935 
2332 1 16.8579 41.9099 1.4329 
259 1 10.2214 14.5235 -0.0359931 
2311 1 12.9499 39.8768 -0.578824 
453 1 15.1362 2.96675 4.41484 
3576 1 24.2031 41.1898 38.3276 
860 1 23.9448 -1.03575 17.0204 
627 1 7.40267 -0.344803 6.20859 
2970 1 19.5576 38.4502 3.95412 
2503 1 22.7329 38.1628 2.30312 
2106 1 22.8968 39.7559 1.057 
2295 1 24.6419 41.306 2.31302 
3406 1 5.64485 15.7689 37.8966 
2431 1 24.5752 16.5504 16.4083 
2591 1 34.7448 37.8813 5.61436 
1598 1 37.2562 10.3902 37.766 
2162 1 -13.3926 37.7322 2.25988 
857 1 18.4629 0.213189 6.75451 
2912 1 18.8025 14.3695 15.7256 
753 1 28.3105 0.760423 0.23236 
3876 1 32.8629 1.5146 38.4688 
21 1 32.5043 2.00091 2.37996 
2216 1 -2.07467 15.6442 3.12376 
2188 1 34.9824 40.4507 0.968313 
1022 1 27.1789 1.48712 15.1653 
1913 1 38.5962 1.23947 41.1454 
1851 1 -0.605968 5.57009 39.4762 
1897 1 23.2162 4.56866 40.1995 
1322 1 -4.13875 9.71802 17.0437 
289 1 7.85021 3.2435 2.50069 
1058 1 14.9022 -1.03558 11.9798 
2366 1 2.96609 41.7792 0.821299 
1809 1 14.0647 -0.561946 17.1366 
2194 1 42.6555 44.0048 1.76537 
3960 1 45.3738 40.6482 43.9419 
1316 1 16.1383 0.483414 38.9773 
294 1 5.02589 3.08626 2.83611 
2358 1 44.0052 51.6749 -0.268935 
6 1 10.4515 3.29791 2.57456 
82 1 8.93688 5.16587 0.993885 
645 1 -6.4159 0.24651 4.04359 
650 1 12.2796 3.66621 0.507864 
1224 1 13.2592 4.55628 41.6162 
361 1 -3.34828 17.0198 4.72433 
2733 1 18.3859 39.5279 1.42787 
17 1 17.2451 2.14316 5.79359 
2987 1 14.5966 41.6918 1.44347 
131 1 17.1724 4.56166 5.2108 
2099 1 22.0945 43.9362 3.9254 
1177 1 7.06894 -1.14733 13.6982 
649 1 20.0866 3.90247 0.0139539 
2526 1 20.6224 40.7274 1.20572 
1066 1 20.6091 4.32322 40.766 
846 1 25.184 4.84293 0.206014 
293 1 26.9026 5.25446 2.43733 
1830 1 21.6896 8.17495 39.0029 
276 1 29.0798 7.36883 1.35981 
535 1 25.7921 0.996748 0.597094 
2387 1 32.5384 48.9273 0.598944 
233 1 32.0855 5.72852 1.0778 
2390 1 32.5286 41.8683 4.94299 
832 1 33.4858 17.9365 17.7364 
873 1 33.8855 4.22539 1.56698 
2179 1 31.2635 42.6962 2.97521 
480 1 34.2087 6.43914 2.31386 
41 1 -0.187587 3.99565 3.51676 
8 1 -3.0052 6.22107 0.332552 
20 1 -4.56571 4.7403 4.00507 
1 1 -0.160426 8.52329 2.63504 
1768 1 2.23721 5.34393 38.3524 
282 1 1.02146 9.83061 0.00743829 
881 1 6.48835 9.1796 1.89198 
418 1 42.386 8.49585 2.83927 
2708 1 18.5243 14.3989 10.4361 
154 1 30.7696 11.528 -0.649858 
518 1 46.7792 7.91321 0.749509 
2199 1 48.7062 46.4053 -0.833493 
2989 1 26.131 38.2813 16.8885 
52 1 5.96652 7.89416 -0.541324 
744 1 17.8329 16.7971 14.6944 
496 1 11.09 11.8818 0.300493 
828 1 21.0696 -0.415103 6.95392 
613 1 12.1698 10.6424 2.10927 
239 1 51.0819 8.17357 -0.098917 
1384 1 18.1087 5.77057 39.3812 
106 1 16.9945 8.36062 1.96092 
98 1 15.8471 9.88913 0.59707 
67 1 15.7782 10.0659 3.13491 
14 1 20.1821 6.594 2.16104 
485 1 25.2896 10.2339 1.12776 
60 1 22.0331 10.2543 2.08694 
1716 1 27.4472 5.28616 38.4419 
2751 1 16.9295 15.6683 17.1428 
192 1 26.9228 7.50051 -0.467477 
349 1 26.7542 8.05554 1.79102 
3151 1 28.3811 48.1626 0.592477 
1351 1 31.4117 9.08325 43.4228 
150 1 31.1441 9.01714 1.54253 
2393 1 32.2283 51.1873 1.48314 
433 1 32.1103 14.0109 3.48931 
244 1 -8.53701 13.7727 0.672842 
2030 1 36.1539 8.23321 1.18288 
117 1 32.4316 8.0885 3.29999 
465 1 39.1797 6.65768 3.95913 
456 1 3.22799 10.3421 1.70586 
1949 1 39.6506 11.1484 40.9431 
880 1 37.3784 10.8803 1.51913 
443 1 5.28512 10.315 3.84726 
1605 1 1.31072 14.019 38.975 
2568 1 5.18369 50.0195 1.49814 
3527 1 -0.453411 37.7278 15.6913 
1298 1 7.80149 14.9674 37.5846 
378 1 13.3388 17.3946 12.0187 
954 1 25.5621 11.5185 15.9282 
342 1 9.76142 9.89821 0.954266 
2281 1 2.60969 37.69 14.3251 
68 1 12.9366 12.982 1.3302 
360 1 17.4413 11.88 3.50393 
1781 1 14.4526 11.6194 41.1866 
884 1 8.40268 17.5868 11.0562 
2265 1 15.2164 14.0322 0.657188 
751 1 19.2938 7.68321 -0.395779 
1938 1 17.5297 14.5832 38.6762 
1495 1 16.7501 11.9747 39.8647 
143 1 18.3492 14.4371 2.37552 
2982 1 23.4099 37.6 11.8488 
548 1 18.7483 10.1093 2.13337 
738 1 20.8086 11.4997 4.15061 
3951 1 24.3525 11.6021 41.3371 
2463 1 21.9054 12.0367 0.874428 
2150 1 31.0472 39.2155 9.00104 
355 1 24.1139 13.4133 0.120361 
734 1 21.771 15.8011 3.2027 
553 1 29.6608 11.4323 1.91533 
3325 1 5.32703 15.5721 17.7103 
121 1 2.14474 16.5073 0.912133 
248 1 4.59396 2.91219 -0.934699 
2841 1 3.06601 16.6017 16.3798 
1863 1 33.9106 15.088 42.4459 
3634 1 33.9667 14.2172 39.4407 
1751 1 34.384 9.35804 40.8556 
3703 1 37.2799 16.4456 44.13 
1995 1 37.8437 12.7238 38.6953 
3217 1 -0.154724 13.9046 40.9538 
2784 1 17.1659 38.212 13.4074 
1773 1 15.4527 16.4753 38.8302 
3849 1 4.81208 14.5193 41.3078 
1582 1 0.0797947 16.6552 40.7509 
3490 1 5.99661 39.5697 41.0058 
1745 1 20.3983 16.6868 12.6303 
3922 1 3.65612 14.9026 38.7196 
3756 1 8.81689 15.8075 39.8234 
1562 1 9.21457 12.9018 39.7703 
1524 1 11.4941 14.7338 40.5737 
1758 1 31.7919 14.1971 37.722 
169 1 9.75815 15.8549 3.26928 
526 1 12.3118 17.9332 14.2317 
2462 1 12.734 17.5036 1.08773 
1772 1 12.7549 13.9782 42.6408 
241 1 3.22997 12.2006 0.226159 
1556 1 12.4758 16.3255 43.0161 
2007 1 13.5565 15.1991 2.21007 
581 1 21.513 16.4096 5.94397 
1069 1 24.2554 3.50371 17.0047 
2828 1 22.9155 17.4508 1.81302 
1861 1 23.2176 -0.521904 43.4842 
263 1 20.6663 13.6307 2.09608 
189 1 17.7038 16.9412 1.90422 
306 1 26.781 16.8594 1.00591 
2273 1 27.3941 14.4188 -0.173542 
1796 1 22.2491 15.2 39.1735 
949 1 27.9012 13.2068 2.52753 
914 1 27.0503 17.269 7.292 
391 1 28.9342 15.6192 1.81387 
1958 1 31.7322 15.5601 39.5488 
271 1 33.6418 16.0723 -0.474299 
2002 1 -1.86528 17.7108 -0.113261 
2680 1 32.4237 17.0523 13.7468 
1790 1 29.9374 15.8829 38.0989 
2197 1 31.4863 42.1887 0.104686 
926 1 -0.48698 16.8158 17.7952 
2919 1 34.2925 18.0169 6.54942 
720 1 34.6207 2.29417 3.71247 
1849 1 -0.93354 -0.463243 42.9842 
2395 1 41.0947 41.04 2.78724 
406 1 3.60324 3.1012 4.91731 
730 1 15.1735 2.09449 -0.888597 
2524 1 3.95515 40.6905 9.14873 
12 1 5.49355 0.574927 6.91305 
670 1 11.2624 1.8144 6.69309 
2122 1 -4.38253 39.7582 10.6465 
1046 1 -18.1702 0.289437 15.4584 
1227 1 23.62 12.6723 17.4508 
1054 1 11.2181 0.761875 1.56337 
2135 1 5.67092 38.4614 4.73469 
2344 1 11.3541 38.039 5.68362 
972 1 -18.9855 16.9142 16.496 
1652 1 6.95215 -0.652736 49.6004 
3438 1 38.3098 7.62544 38.914 
1285 1 10.4271 0.0623237 17.7831 
90 1 17.5594 -0.379726 4.84068 
416 1 21.4174 0.935157 4.38754 
3428 1 31.5719 17.9146 37.8391 
910 1 25.7819 0.2576 5.15857 
2374 1 22.0593 41.0415 3.0009 
834 1 27.2277 1.70236 6.43103 
2338 1 23.8195 39.9867 4.10927 
1692 1 9.78866 7.82237 17.2164 
1005 1 3.01526 -0.209539 5.85339 
698 1 27.1664 2.83756 1.02939 
307 1 29.3689 0.568525 5.28197 
3999 1 29.4665 41.3372 40.2389 
647 1 -6.78357 0.183845 1.74161 
31 1 29.3031 0.623867 2.32442 
2153 1 34.0842 38.5303 2.69578 
1882 1 -13.8982 14.9008 40.4228 
3754 1 32.3495 38.9037 45.0217 
793 1 35.681 16.0743 17.2789 
44 1 -2.22706 0.459514 2.46487 
269 1 36.9041 1.89326 4.11337 
3925 1 0.86975 43.6071 44.5371 
479 1 44.6224 4.2957 0.80793 
1713 1 41.9302 5.09271 47.4634 
2800 1 41.4878 40.8231 6.87077 
35 1 40.1433 4.86855 1.98242 
83 1 8.54077 8.24991 2.86955 
2730 1 6.29392 42.6897 4.54951 
281 1 8.77294 5.66019 3.31084 
2683 1 8.51392 40.1793 7.37619 
313 1 49.6028 6.19925 4.33623 
446 1 11.367 3.29404 5.1682 
813 1 12.6009 0.525436 8.10693 
2132 1 11.9762 44.6292 1.48986 
609 1 12.8813 2.01695 3.24095 
579 1 17.3904 6.34009 8.61577 
312 1 15.5512 3.57901 7.44043 
854 1 13.2626 5.23135 6.66697 
774 1 14.8352 0.514748 4.40083 
2362 1 18.2178 42.9484 7.3833 
337 1 18.7037 3.36843 2.95018 
2833 1 15.189 5.71874 5.28756 
461 1 23.5075 5.09896 6.19356 
2746 1 22.3925 42.2372 5.09765 
2624 1 22.6091 6.14106 8.15011 
261 1 24.3042 4.1917 4.04913 
3993 1 28.7807 43.0969 41.9789 
212 1 26.3505 3.22326 4.62017 
2588 1 28.5244 40.7719 4.07483 
790 1 31.5463 5.94249 4.5311 
421 1 29.7539 7.22968 3.95387 
2584 1 35.1047 45.2591 7.47865 
32 1 30.3752 4.14482 5.46298 
3545 1 29.8994 45.3653 6.27136 
1079 1 32.8467 2.72758 8.12753 
843 1 -2.32508 6.00256 5.58858 
2756 1 34.3616 42.6345 6.20803 
27 1 32.044 5.19083 6.9206 
1723 1 -3.89768 1.59943 44.3828 
1951 1 37.1002 9.19857 43.6549 
242 1 2.75031 6.96837 5.21244 
420 1 41.9151 5.22184 6.54165 
1503 1 3.73743 6.94989 46.5362 
604 1 0.834543 5.92436 8.92658 
1311 1 44.9067 6.06133 3.32456 
2398 1 46.5003 49.2297 2.25128 
874 1 43.4767 7.94076 4.83548 
3976 1 9.66101 46.2414 44.7254 
1769 1 10.6999 10.141 45.7348 
203 1 11.2244 8.25224 2.60338 
783 1 10.7042 6.33847 8.56333 
769 1 11.8728 7.86917 6.54964 
139 1 10.0853 11.2346 3.2668 
735 1 11.5785 9.43566 4.44046 
616 1 13.1328 7.35859 4.05211 
198 1 52.2731 8.95357 5.54023 
72 1 15.7624 4.96043 2.9774 
166 1 19.8911 6.2691 7.84752 
145 1 24.6471 9.11202 5.86379 
1985 1 17.6703 6.68888 42.3139 
1905 1 24.9302 6.37796 40.7009 
2783 1 19.6566 43.7682 4.90892 
345 1 19.7695 7.28484 5.52035 
2832 1 22.6929 10.3948 4.66782 
101 1 25.6849 12.2419 7.42211 
2474 1 24.8934 9.51132 3.73497 
188 1 25.6404 6.13664 4.78848 
1501 1 25.6985 4.25647 45.0672 
502 1 29.2415 9.13791 3.00262 
1042 1 -6.73834 12.322 5.32352 
545 1 32.3271 10.8046 3.02437 
506 1 26.965 10.7326 3.10635 
1078 1 33.0025 11.457 7.41515 
315 1 35.8762 11.0367 3.50863 
876 1 34.305 10.2166 5.40426 
2556 1 33.6122 45.2885 5.13949 
2992 1 36.8131 44.5423 3.00174 
2877 1 37.0923 13.031 9.00149 
33 1 40.1099 9.0761 3.99503 
226 1 39.0808 10.9025 4.93361 
802 1 2.74709 15.8267 6.34081 
1380 1 1.54058 10.7692 47.8602 
1996 1 41.0218 8.85219 45.4414 
760 1 41.5752 10.3719 4.90572 
492 1 2.8623 12.7588 2.79716 
2006 1 1.91652 13.4463 5.43947 
415 1 7.31862 10.5563 -0.0746367 
690 1 10.4449 14.9336 5.23615 
739 1 9.20634 9.88929 5.38121 
179 1 8.66971 12.1078 4.94039 
381 1 10.0333 13.4181 3.36354 
782 1 12.7658 11.1066 5.38109 
105 1 17.2415 14.4777 4.83165 
452 1 14.1128 8.80879 1.96156 
2776 1 16.6558 48.4599 5.46697 
335 1 15.1549 7.81583 4.16369 
1889 1 20.2382 12.7449 45.4917 
308 1 15.614 13.9424 3.08976 
332 1 20.0307 10.4114 6.69386 
1090 1 16.23 13.535 7.32419 
1907 1 21.9544 14.0876 44.0029 
2267 1 22.7187 13.2863 2.93901 
552 1 27.0518 11.0993 5.88844 
463 1 24.2586 13.34 5.94219 
103 1 26.0838 15.0274 6.52514 
2334 1 24.8634 49.9072 5.20625 
197 1 28.8723 11.1801 4.29104 
662 1 32.711 16.5633 5.5188 
1074 1 28.0232 13.1684 6.46924 
389 1 33.7099 12.6831 3.11041 
869 1 33.1107 13.9509 7.67614 
3639 1 31.2461 14.604 44.647 
918 1 35.5797 14.9208 5.50559 
357 1 34.3962 12.0968 0.559456 
1192 1 35.2737 11.5352 7.61164 
158 1 32.8136 8.95867 7.11761 
1198 1 37.3141 13.0308 4.26934 
3649 1 -2.58856 13.0633 40.988 
1542 1 15.8553 12.5961 37.3653 
1486 1 0.584665 15.2204 4.68046 
3041 1 -15.4757 17.6962 12.0276 
3807 1 15.3844 4.19846 37.5894 
3283 1 4.91642 16.453 40.041 
1304 1 6.85677 13.5472 40.1052 
538 1 7.76072 14.4189 4.54538 
148 1 6.41121 14.797 6.15455 
736 1 13.2342 11.5449 17.8739 
2176 1 29.9294 43.7638 0.847072 
3856 1 11.8809 17.2103 45.054 
3823 1 10.6404 14.8951 46.4629 
975 1 13.9995 14.0405 9.01998 
781 1 11.6719 12.5471 8.38066 
373 1 13.2345 13.8092 6.74432 
2247 1 14.9498 12.4881 5.07717 
2759 1 29.3794 15.2114 17.4239 
107 1 14.9857 15.2458 5.74017 
987 1 17.0906 15.9019 6.66133 
2040 1 19.8749 13.8927 4.25762 
2032 1 19.6807 16.5387 3.93497 
992 1 17.3439 17.1885 4.54046 
2592 1 24.0038 53.4634 4.16044 
1902 1 20.0295 16.4314 40.0069 
58 1 30.511 7.31115 -0.416347 
393 1 49.4334 17.5263 -0.484124 
2353 1 26.807 15.3887 2.80781 
792 1 25.1153 17.44 3.0223 
112 1 26.2514 16.8218 5.12368 
2489 1 8.33802 16.0069 9.0762 
1411 1 35.2883 13.8408 37.4061 
2670 1 26.5802 13.392 4.61498 
2402 1 -9.87767 16.1236 5.49804 
354 1 27.9131 17.1016 3.33453 
3931 1 8.15714 37.3996 40.6853 
240 1 39.6005 -1.10051 12.1002 
754 1 29.637 14.0515 4.25487 
1703 1 23.3259 9.9443 37.5106 
959 1 32.7829 16.7314 8.02388 
1016 1 13.0897 -0.239862 10.7002 
2111 1 37.6345 13.4409 6.768 
3085 1 -14.4511 37.9623 14.8281 
3564 1 -1.9346 49.85 5.75089 
615 1 5.62165 13.7264 16.5716 
2596 1 31.7188 40.8218 16.4713 
97 1 -1.27614 4.91504 12.3932 
2763 1 -6.13523 38.7471 17.5658 
639 1 41.6943 -0.312617 8.29418 
1719 1 39.9247 1.64215 17.0793 
1939 1 12.3953 -0.900414 38.6702 
845 1 1.46107 3.67639 8.42709 
1699 1 7.2266 2.74087 47.4475 
2369 1 6.79736 38.6936 8.93334 
252 1 9.96939 2.64059 9.34088 
442 1 10.9041 0.360678 10.0587 
2940 1 11.1503 42.6098 7.7517 
3873 1 25.9542 12.2143 39.9854 
1261 1 14.0277 8.05291 17.9518 
547 1 13.2637 1.29873 5.66079 
1284 1 -23.5986 1.52084 8.38192 
2565 1 0.564326 38.1912 8.73035 
3385 1 17.0176 41.1117 10.2219 
625 1 18.0648 2.18647 7.97263 
1025 1 33.5633 15.9314 16.3226 
872 1 23.0543 1.89731 7.72134 
231 1 21.3967 1.8782 10.6213 
829 1 18.794 1.29364 -0.750789 
633 1 25.5517 2.21522 8.50068 
612 1 29.7024 2.6337 10.0986 
1869 1 26.7112 1.27916 41.3269 
2136 1 29.9425 39.4134 11.9229 
1840 1 36.7322 0.0483218 38.68 
809 1 1.81336 6.72107 17.1809 
3042 1 -9.75262 39.7216 8.17705 
232 1 32.0425 2.60304 10.5749 
1667 1 36.7915 0.934153 6.64372 
43 1 -3.29131 1.55267 8.5087 
390 1 36.6612 4.39815 10.1481 
262 1 -2.59612 4.09957 7.84319 
2994 1 36.6039 40.2655 10.4696 
401 1 -1.05306 5.74752 7.7634 
2768 1 1.23887 39.3331 6.93028 
679 1 39.0194 3.92807 10.8411 
234 1 38.0667 2.52997 8.54416 
688 1 -0.488975 2.93549 6.15352 
363 1 2.63552 3.0236 11.1037 
564 1 4.63329 2.60074 12.4933 
886 1 5.30453 2.98 7.11063 
3162 1 2.77094 43.6326 11.1047 
2774 1 5.01897 42.6352 10.4049 
2457 1 5.36919 0.994549 10.8807 
1612 1 8.86329 4.67183 47.6635 
2978 1 8.02674 44.2211 5.43206 
681 1 12.7241 4.53822 9.21656 
2845 1 9.87436 5.36979 6.5917 
1372 1 6.61993 5.93407 10.88 
902 1 13.0081 2.96925 7.4025 
775 1 14.6352 2.82135 10.1963 
511 1 19.5465 3.76788 9.42419 
28 1 20.9573 4.30906 6.69018 
2386 1 19.7551 41.2068 5.50038 
368 1 20.8722 1.7054 7.99554 
632 1 31.1918 4.76195 17.7641 
2580 1 22.0297 43.2405 11.9882 
1268 1 22.1525 4.05485 9.28662 
475 1 24.4796 4.23474 8.49142 
287 1 24.8353 2.08189 6.14882 
220 1 27.6508 3.32993 8.84544 
430 1 23.682 2.57897 10.7266 
664 1 25.5424 7.13868 7.38443 
706 1 28.4521 7.11934 10.0741 
422 1 29.866 4.95451 8.62175 
2799 1 30.4059 46.0923 8.64103 
713 1 28.4583 3.7936 6.8234 
603 1 -3.85978 3.44288 9.99687 
2434 1 30.7076 2.17324 7.0523 
1235 1 32.4359 4.98074 9.25739 
601 1 -0.360267 8.14203 7.95108 
517 1 39.2986 7.79741 5.94845 
723 1 -2.47543 8.09792 3.40455 
964 1 1.4756 8.36866 9.48104 
3916 1 36.9017 47.4545 49.8783 
799 1 41.1295 7.75199 11.6413 
2558 1 44.4572 45.9896 7.51683 
1156 1 39.379 9.91026 11.3278 
522 1 7.7196 4.20726 7.16676 
2675 1 43.8555 5.71064 6.01415 
126 1 5.66816 5.36484 8.33889 
1364 1 7.01133 9.70278 47.1341 
53 1 10.8748 5.70671 11.3541 
1010 1 11.2544 8.66876 9.16866 
2967 1 8.06561 46.2179 7.92143 
577 1 13.0898 9.88669 8.17416 
460 1 16.973 7.67069 6.02759 
419 1 15.3194 6.83517 11.683 
883 1 14.4953 7.3664 6.92862 
745 1 20.8423 8.48217 8.71237 
383 1 19.8959 8.28982 12.0863 
911 1 21.8986 8.79308 6.24092 
217 1 20.9637 6.40763 10.198 
583 1 23.2428 7.27343 5.15129 
586 1 22.9792 11.5042 6.98935 
501 1 21.3068 9.92786 11.1886 
2790 1 26.1413 47.956 7.61813 
147 1 27.197 7.87628 4.32425 
853 1 20.9447 15.2169 8.2341 
2764 1 -10.638 44.7284 5.61224 
316 1 28.9039 9.49594 5.30903 
2587 1 31.7657 51.2396 9.61002 
1281 1 -10.3124 6.45679 8.00414 
591 1 30.671 10.0774 6.71284 
1057 1 30.7963 10.686 8.90735 
718 1 33.2902 10.3233 9.74272 
889 1 -3.45828 5.54949 9.42125 
236 1 33.2752 7.35168 8.65112 
1115 1 35.6159 9.16948 7.30246 
629 1 35.7593 8.35253 9.2618 
567 1 -2.9108 10.8857 10.2214 
1082 1 -4.40599 8.43044 10.7562 
1084 1 -0.768745 14.7582 10.3694 
3440 1 37.782 15.8903 46.5118 
878 1 40.2612 12.2191 12.3308 
968 1 3.19172 9.82155 14.35 
172 1 3.74321 11.8735 8.91901 
320 1 43.2994 9.66876 7.3572 
2657 1 7.16385 8.43712 4.98933 
848 1 5.95626 12.5637 7.08727 
325 1 4.34475 9.34163 9.56448 
807 1 0.403785 16.8844 11.7395 
3607 1 3.88464 11.6664 45.0112 
2423 1 7.01583 12.9165 11.8654 
1303 1 4.47912 15.444 9.91091 
2413 1 6.30864 12.6157 3.85008 
2471 1 49.4899 12.4874 6.24515 
444 1 8.55702 11.4496 7.80725 
323 1 7.0775 12.4013 9.58321 
524 1 9.34496 12.0056 10.358 
784 1 18.7428 9.5797 4.7064 
895 1 16.1158 11.2182 11.522 
572 1 17.0539 11.2088 7.54374 
388 1 18.3609 12.1609 5.58828 
503 1 18.4922 8.43772 7.83965 
1967 1 15.4688 9.40396 45.786 
540 1 19.743 11.2408 12.7627 
2268 1 19.2889 11.5738 9.01565 
590 1 21.6534 10.5112 9.11333 
2981 1 22.5169 12.1122 11.5407 
950 1 22.5987 16.8992 8.68147 
2744 1 29.3298 14.8332 7.59486 
1187 1 23.6141 15.3626 6.92154 
3034 1 29.4634 12.3674 10.0085 
620 1 26.3503 13.4667 9.2755 
3470 1 31.4332 14.9287 9.29967 
279 1 30.3159 12.7703 7.54743 
995 1 29.2593 14.9704 10.6642 
2831 1 34.1312 12.6842 5.62247 
119 1 30.692 11.0914 13.4698 
3671 1 35.3003 15.7345 46.9832 
1081 1 -0.793319 9.85866 9.54217 
2993 1 37.9998 49.3055 7.36202 
3623 1 1.19553 14.1703 45.9573 
2938 1 27.2338 38.4167 12.8907 
3835 1 42.6708 18.0516 38.3098 
847 1 24.7446 9.5402 16.9542 
2230 1 15.4842 17.4734 16.2989 
1086 1 2.90504 17.4774 10.728 
558 1 40.2837 11.6468 7.13913 
1158 1 44.708 14.2824 8.82638 
2610 1 8.25392 16.3373 6.63264 
127 1 5.02261 10.2388 -0.262906 
359 1 33.2499 7.9607 0.372574 
1989 1 47.1223 13.8076 45.8486 
573 1 10.271 13.9761 9.96882 
403 1 1.84767 8.0604 1.59378 
1908 1 16.0287 13.0563 48.2832 
397 1 50.6497 12.957 10.8733 
2271 1 16.7366 12.6347 15.7026 
2072 1 14.8648 16.9645 8.20699 
493 1 15.0347 16.7319 10.8184 
372 1 18.7263 13.8298 8.27716 
3224 1 13.2367 14.3643 37.8864 
3825 1 18.3597 15.1229 51.6488 
458 1 19.3656 14.8564 6.28722 
1954 1 23.3123 8.43267 40.8012 
478 1 18.8532 16.8317 8.71281 
519 1 25.0766 15.3765 8.54729 
982 1 23.4802 14.5949 10.3479 
2511 1 30.2976 16.9906 9.30081 
1991 1 27.5671 15.7006 47.472 
906 1 10.3889 2.9705 17.9726 
2356 1 37.3611 38.0329 12.9972 
2225 1 30.658 16.9418 6.75384 
786 1 32.9509 15.3233 10.9407 
1877 1 44.6674 7.03195 40.0179 
1343 1 25.9214 11.6032 37.4281 
1697 1 17.5318 3.20706 37.5275 
2822 1 34.5836 13.0857 9.43997 
229 1 39.3355 1.11123 10.3531 
842 1 2.96587 -0.0257678 10.8707 
317 1 39.0204 1.19744 14.8245 
2968 1 4.48683 38.7873 15.4123 
1832 1 34.7462 10.1722 37.7165 
1986 1 20.582 13.829 17.0205 
2458 1 5.17601 41.054 14.5657 
1122 1 9.83951 3.44259 11.7922 
1105 1 4.54616 0.308955 13.1391 
2855 1 12.2866 4.22505 16.7224 
209 1 13.6631 1.26806 12.3398 
1173 1 11.2196 -1.02494 12.6472 
2673 1 34.9616 37.6592 10.2514 
468 1 22.5451 7.63126 17.6407 
2646 1 20.2454 38.3066 11.6319 
1065 1 12.0332 2.23037 9.47368 
3773 1 16.0487 38.6655 6.7426 
890 1 20.7971 2.81035 12.6384 
3338 1 19.8731 38.3824 9.25234 
945 1 22.3028 0.756543 12.8835 
819 1 23.2148 2.97841 13.0543 
1305 1 25.9847 3.78143 10.7527 
562 1 28.1887 2.74984 16.9713 
464 1 25.3249 1.29221 12.4401 
267 1 26.4042 6.28355 11.3427 
3155 1 26.2697 41.9739 13.1652 
2316 1 29.316 41.7831 14.8939 
2753 1 28.2009 40.7515 13.0187 
2147 1 27.3531 40.3185 10.721 
2595 1 29.3592 38.7266 14.1915 
2789 1 35.3225 40.8041 12.7146 
2710 1 33.8795 39.6365 15.5569 
1029 1 35.517 6.64471 11.4127 
747 1 30.6153 3.1799 12.4879 
3081 1 0.979329 41.9647 14.783 
3399 1 38.2464 41.0538 12.7779 
3189 1 34.2217 41.9573 14.494 
1325 1 -0.870878 7.40457 12.7448 
969 1 2.95874 4.02476 13.285 
643 1 -0.853782 -0.521283 10.6853 
1359 1 40.1707 1.07746 12.5099 
275 1 45.8527 3.76702 11.0425 
3562 1 5.84351 41.0105 16.7193 
1414 1 2.77277 7.53089 13.9869 
469 1 43.1922 7.26467 16.1239 
844 1 7.05769 1.42098 12.6921 
1047 1 6.77138 8.15322 10.0706 
693 1 12.4526 3.36837 13.6245 
292 1 10.9793 1.26419 12.3494 
523 1 8.03158 5.65053 12.8014 
3138 1 15.8899 39.6234 11.702 
791 1 16.5408 5.11292 10.7529 
384 1 12.2308 3.83098 11.5872 
1064 1 13.0003 6.03647 11.2708 
661 1 19.2404 2.01562 10.7517 
3167 1 17.8947 38.3588 11.1335 
1230 1 17.7533 3.20148 12.4437 
473 1 19.4492 4.83155 11.8105 
2318 1 23.0119 46.7828 10.3233 
3159 1 17.6536 45.6899 11.2664 
1094 1 26.4148 5.33206 9.02815 
1994 1 28.2277 4.7044 49.356 
515 1 26.3979 6.99902 17.6363 
712 1 25.4144 4.54137 15.3723 
3029 1 24.0772 5.3193 10.5478 
2795 1 31.9938 42.6729 14.8832 
474 1 30.0539 7.84707 11.9991 
260 1 28.733 4.95691 13.1646 
1676 1 27.431 5.72918 15.4572 
1911 1 33.1262 4.66683 12.1238 
3589 1 30.523 43.629 10.7087 
749 1 31.1605 5.90547 13.4317 
2972 1 2.88373 43.5272 15.5824 
2293 1 -0.689001 45.3567 10.4321 
695 1 35.7245 8.9239 13.4035 
1470 1 31.9651 6.94374 11.3034 
1323 1 -5.11909 5.92773 14.6596 
922 1 1.01336 6.03002 11.814 
921 1 1.45091 10.7046 16.0896 
440 1 39.3476 10.0202 13.6254 
2630 1 39.3425 8.23845 15.3189 
1134 1 2.01459 13.2264 16.7599 
1083 1 4.58054 13.2203 10.6099 
481 1 6.03083 7.09404 13.4838 
1490 1 1.37337 5.79684 13.9006 
1921 1 6.71899 10.5178 44.2939 
778 1 8.93267 9.28928 10.3164 
2640 1 44.8634 9.29926 12.5966 
727 1 4.94078 7.17548 11.6604 
924 1 9.45245 5.40815 17.0207 
728 1 8.86671 6.87196 10.1373 
70 1 51.2284 7.10721 8.7521 
159 1 50.46 8.49353 11.2895 
2771 1 10.8258 46.1521 13.168 
2409 1 17.7996 9.48366 12.4328 
2251 1 16.6597 7.59824 13.8442 
2810 1 15.0412 6.43683 9.08414 
2209 1 13.1671 7.60006 13.034 
1222 1 14.1207 8.43449 10.4363 
551 1 19.4956 6.76385 14.2655 
543 1 19.0959 9.37425 10.0764 
3005 1 19.3665 7.08181 17.9943 
2985 1 21.5462 45.5857 12.6156 
243 1 17.3316 6.24744 16.1601 
495 1 23.6624 9.14061 8.1432 
1263 1 25.7697 7.65159 9.7162 
653 1 26.8779 8.8865 11.4873 
428 1 26.3495 10.6958 13.1695 
412 1 24.1366 7.42254 12.5375 
624 1 27.199 11.5975 10.481 
509 1 28.2631 8.82434 7.33884 
559 1 28.7488 9.50273 9.96561 
826 1 28.6833 9.48768 12.96 
862 1 29.7005 7.3387 14.4059 
1356 1 33.5951 7.3234 12.8131 
877 1 31.3273 8.9719 10.38 
1309 1 33.3589 9.65769 12.623 
272 1 37.9923 12.2751 10.8476 
1260 1 -2.6794 6.65393 14.0366 
514 1 39.6792 12.7611 14.5481 
675 1 37.5752 12.6304 13.478 
3534 1 1.40822 51.6671 10.1298 
491 1 3.39371 12.1676 15.122 
454 1 4.09305 12.3464 12.6249 
998 1 42.4755 10.1159 11.5635 
580 1 5.50807 13.584 14.314 
1887 1 5.8045 11.4073 52.2979 
1333 1 8.27819 11.1113 12.2999 
962 1 4.24868 15.0951 12.2755 
3101 1 15.3675 7.27823 39.0624 
2412 1 6.6857 15.5291 13.1846 
929 1 10.1336 13.5296 12.3346 
2175 1 8.19394 53.3066 11.0816 
1928 1 11.6126 10.83 48.8431 
2816 1 11.4311 14.5122 14.6694 
441 1 14.517 11.8089 7.4453 
1107 1 14.2669 12.6836 11.887 
2443 1 14.1877 11.1852 9.69987 
367 1 16.3901 8.99427 10.1086 
500 1 16.2831 15.2595 9.17867 
141 1 22.3155 8.87063 13.3345 
23 1 20.2132 9.50766 14.0312 
3105 1 18.3448 8.59656 15.72 
651 1 24.1308 10.2496 11.6108 
1783 1 22.2806 11.0761 52.5353 
350 1 23.3585 13.3873 8.4559 
732 1 20.6275 15.5489 14.8849 
2432 1 26.9844 13.9058 11.6996 
1087 1 -13.7453 10.9141 9.24399 
184 1 28.6155 50.6431 12.5607 
951 1 29.3088 14.1753 13.0383 
1278 1 29.9901 12.9296 15.3176 
1186 1 28.4526 12.6301 17.0003 
1999 1 32.2298 11.2979 50.131 
3030 1 28.5885 10.9279 8.1122 
1155 1 33.7824 13.1848 11.9741 
1161 1 -6.23845 12.7548 15.1205 
2990 1 33.905 51.9463 16.5038 
1001 1 -1.83741 17.5913 12.3292 
3841 1 -1.61067 17.1589 10.0476 
677 1 39.3271 14.2079 12.7548 
3053 1 18.1383 17.0117 11.2611 
1628 1 34.7297 -0.65861 37.4714 
5 1 6.25495 -0.718023 0.731037 
204 1 3.05324 14.6089 15.2581 
684 1 5.61979 17.3133 11.934 
3566 1 14.8203 37.7759 9.09895 
3884 1 11.6569 5.44044 37.6448 
1883 1 -10.58 -0.754606 48.4894 
472 1 22.7762 0.147851 9.9535 
1080 1 30.2146 7.14465 17.8774 
2971 1 3.51317 55.3168 8.20052 
1914 1 34.5057 15.3352 13.4168 
2541 1 10.3368 16.4318 15.0425 
1093 1 10.4806 16.3226 10.4711 
1960 1 30.4318 1.32971 38.777 
2250 1 9.49551 16.3837 12.7894 
2011 1 8.70024 17.9228 2.51072 
2260 1 11.522 15.3994 12.5442 
2942 1 12.9494 10.326 12.4684 
1117 1 22.7285 14.0217 15.702 
151 1 13.7577 16.1736 14.2364 
2734 1 13.6453 53.3971 11.5131 
400 1 18.7002 16.7763 -0.728585 
2418 1 20.8702 16.2551 10.3901 
249 1 18.3938 11.9347 11.003 
247 1 3.75069 7.75391 0.280127 
787 1 20.9922 13.0371 9.29013 
1452 1 1.66576 15.6619 17.8646 
1680 1 22.4807 15.4774 51.1667 
2715 1 24.8633 15.127 12.8136 
2749 1 26.1837 54.4466 11.1255 
2594 1 31.7913 14.8769 13.1776 
2916 1 40.6563 37.6902 16.4064 
213 1 9.66272 -0.536752 7.27628 
2480 1 29.6714 16.0652 14.3061 
917 1 30.307 16.6755 11.6196 
3645 1 -0.128838 16.3134 38.3672 
351 1 34.1731 17.4362 11.8391 
2869 1 35.4095 15.3674 11.0356 
1525 1 -6.57834 8.67597 16.9357 
1167 1 -13.4693 15.9139 38.4354 
1714 1 25.9538 13.188 17.7068 
861 1 36.9259 16.6052 14.9212 
1102 1 37.2779 15.4113 12.738 
3397 1 35.202 37.4107 14.048 
3130 1 6.93961 39.4261 14.9601 
595 1 24.3835 17.1773 9.97257 
3530 1 6.12345 38.9588 17.5106 
3473 1 17.8172 10.7661 37.9169 
1553 1 15.7974 10.775 14.4192 
820 1 8.23943 1.91922 16.9253 
3222 1 22.4279 15.837 17.3259 
3339 1 9.27254 40.4003 14.3871 
3178 1 7.32414 42.5913 14.9226 
288 1 9.77596 -0.704221 14.6693 
1265 1 12.2942 0.533179 14.0988 
3538 1 15.941 40.3513 17.1629 
2562 1 -7.52498 38.0273 15.5189 
2698 1 16.3965 40.4116 14.116 
1259 1 14.6391 -0.276845 14.3111 
1621 1 22.8513 3.91478 15.6072 
1013 1 18.998 1.28079 13.6596 
1060 1 19.1352 2.02916 17.0393 
34 1 36.2571 7.89702 -1.14311 
1550 1 22.9864 4.82917 37.7901 
2582 1 21.6706 37.7124 17.2639 
2856 1 10.6701 12.2951 17.2578 
1596 1 19.3633 12.198 38.5626 
3778 1 24.7446 43.3441 12.5272 
875 1 24.615 2.24911 14.8581 
619 1 7.32153 5.80994 -0.738426 
2026 1 9.64706 17.3799 5.30984 
2669 1 26.6667 38.1704 8.25256 
185 1 14.2767 11.2481 0.585174 
2428 1 8.75139 37.688 -0.256926 
2958 1 26.0663 40.5154 17.4398 
1341 1 21.2566 8.61086 42.0333 
626 1 28.6853 -0.0614082 16.6387 
3710 1 31.7451 40.1574 14.2992 
3394 1 33.0653 40.7524 12.6745 
2495 1 8.86873 39.6216 10.9487 
2593 1 22.8541 39.7086 16.5429 
965 1 2.42701 17.0026 3.79965 
879 1 36.5852 1.24765 14.5035 
3136 1 0.819868 17.1835 6.72255 
291 1 16.8848 0.299562 8.84449 
208 1 -1.14131 3.05997 16.0957 
1896 1 2.77277 1.76285 53.0673 
3591 1 41.7011 41.5249 17.0675 
2287 1 4.97858 16.3779 4.99668 
3146 1 15.9666 17.1006 12.7899 
206 1 3.84193 0.243875 3.44573 
1111 1 43.9611 4.83449 12.852 
3362 1 5.9353 44.2086 17.1862 
1613 1 0.764694 4.6255 17.4668 
16 1 9.58865 6.93262 14.9149 
933 1 10.4057 3.63785 15.4714 
1132 1 0.173389 17.9629 4.18988 
56 1 14.3412 3.80303 15.3393 
439 1 49.0076 4.60538 13.4483 
691 1 10.974 1.65712 16.166 
737 1 27.7797 17.6439 9.54162 
2890 1 13.4516 44.2352 13.9673 
1100 1 15.4782 3.53591 12.6825 
1580 1 17.6403 5.71079 13.1597 
905 1 14.7207 14.7777 16.169 
1294 1 13.4729 1.58987 15.8066 
358 1 31.4454 14.5885 15.8549 
2501 1 16.964 8.0581 17.6819 
2864 1 16.5257 3.93034 17.6417 
1063 1 18.2823 3.47034 15.2029 
656 1 18.7763 4.28895 17.5448 
686 1 20.4845 6.08559 15.9666 
152 1 21.922 17.9441 -0.543966 
610 1 21.0917 3.25358 17.1422 
2830 1 23.1822 6.09493 14.4395 
1970 1 -2.21432 15.3097 39.4152 
997 1 26.3532 4.33349 17.5812 
265 1 24.2259 7.17704 16.1173 
115 1 40.7288 1.54476 -0.485863 
64 1 28.4517 8.05901 16.4325 
2196 1 30.1924 44.0933 15.5567 
1484 1 -6.60439 7.86783 14.7237 
2924 1 -5.45924 45.3128 17.4232 
743 1 27.2674 13.8286 15.3287 
779 1 -5.12007 4.32413 16.8769 
483 1 -7.99753 16.6425 3.98782 
1894 1 24.4149 7.45481 38.7773 
1368 1 3.57845 0.637483 17.5677 
1070 1 36.3895 4.28626 14.2964 
1241 1 -3.31886 3.11558 16.7036 
944 1 -0.47996 5.53369 15.2807 
3169 1 -1.1905 48.781 17.0755 
1812 1 4.76256 5.58368 37.75 
1521 1 2.77483 8.78309 16.0919 
283 1 4.74143 -0.0831376 -1.0342 
42 1 5.99616 9.07494 14.7599 
1043 1 4.68748 10.2246 16.3653 
925 1 7.33873 6.80564 15.6189 
1055 1 -3.01288 7.56254 17.724 
1633 1 35.0682 -0.374722 16.9044 
156 1 46.6478 7.96597 12.4666 
99 1 10.6285 10.106 13.1585 
1096 1 14.4856 6.19697 16.1242 
977 1 10.006 9.00127 14.9487 
2963 1 15.2976 46.9297 15.9152 
770 1 15.776 5.41354 14.4084 
983 1 12.0371 6.71712 15.3723 
3869 1 20.0702 14.4613 38.4039 
1188 1 19.97 4.26912 14.1189 
3751 1 20.5179 10.0641 38.0487 
1040 1 22.0442 8.1322 15.4792 
1112 1 20.661 9.41656 17.1354 
1002 1 -10.1963 10.933 15.0531 
776 1 12.1987 9.24892 16.9334 
1104 1 27.1588 7.38848 13.3234 
497 1 28.3894 12.4199 -0.300908 
160 1 42.173 13.8272 7.55346 
2705 1 24.6547 9.76005 14.0282 
2519 1 47.3485 39.1987 4.88624 
1509 1 26.2784 8.36803 15.4015 
839 1 37.0383 8.17578 15.9323 
1119 1 35.5913 11.7284 13.7787 
74 1 33.081 10.4783 -23.7434 
2320 1 34.2764 46.5785 15.6004 
224 1 30.2359 9.5583 15.6147 
1802 1 -1.40924 10.0862 14.8764 
170 1 -2.44853 13.1193 -26.7699 
1056 1 -2.92466 5.58096 16.3483 
104 1 28.1703 16.6604 12.0209 
2636 1 40.5767 16.4967 13.3705 
1441 1 -0.640918 13.1252 16.0293 
1488 1 7.19223 12.4989 15.7192 
1150 1 43.6858 16.7369 15.1653 
1097 1 6.25638 10.7547 10.7769 
2898 1 9.17462 13.8548 16.4888 
546 1 12.6565 16.3072 8.46097 
1251 1 11.3977 15.1015 18.0776 
85 1 -0.515018 6.8219 -21.11 
1113 1 46.7383 10.1639 14.366 
762 1 12.5674 13.542 16.4832 
2561 1 -15.0575 37.4347 -0.234257 
529 1 12.7522 9.18032 14.8939 
542 1 15.004 9.01329 12.5878 
2220 1 13.4827 11.5757 15.3284 
508 1 25.3464 17.3301 12.8615 
2939 1 11.4288 11.6328 14.6831 
1257 1 17.2836 0.488922 15.9333 
947 1 17.34 12.4257 13.2387 
1109 1 28.2371 17.3848 16.1221 
2440 1 19.5334 11.7525 16.2227 
3229 1 18.0777 10.8551 14.7914 
2622 1 22.4023 10.6559 16.2058 
901 1 25.0008 12.7923 11.13 
658 1 23.1566 13.284 13.4599 
956 1 25.5546 12.8045 13.5069 