LAMMPS (3 Mar 2020)
units		  metal
atom_style	  atomic
timestep 	  0.002
dimension	  3
boundary	  p p p

lattice         fcc  3.615
Lattice spacing in x,y,z = 3.615 3.615 3.615
region          Wbox   block 0 10 0 10 0 10

#Here 1 is number of atom types, Wbox is region-id
create_box      1 Wbox
Created orthogonal box = (0 0 0) to (36.15 36.15 36.15)
  1 by 2 by 2 MPI processor grid

#Here 1 is ith atom type, box is keyword
create_atoms    1 box
Created 4000 atoms
  create_atoms CPU = 0.000895739 secs

##Be careful to use eam/alloy type Mishin copper potential with funcfl format

pair_style eam/alloy
pair_coeff * * /home/ldoan/lammps-3Mar20/potentials/Cu_mishin1.eam.alloy Cu
Reading potential file /home/ldoan/lammps-3Mar20/potentials/Cu_mishin1.eam.alloy with DATE: 2007-10-12

variable T1 equal 2000.0
velocity all create ${T1} 1924705  mom yes dist gaussian loop all
velocity all create 2000 1924705  mom yes dist gaussian loop all

neighbor 1.0 bin
neigh_modify every 1 delay 0 check yes

fix npt_thermostat all npt temp ${T1} ${T1} 0.2 iso 0.0 0.0 0.2 drag 0.20
fix npt_thermostat all npt temp 2000 ${T1} 0.2 iso 0.0 0.0 0.2 drag 0.20
fix npt_thermostat all npt temp 2000 2000 0.2 iso 0.0 0.0 0.2 drag 0.20

dump atompos all custom 10000 dump.pos.*.dat id type x y z
dump atompos2 all custom 10000 dump2.pos.*.dat id type xu yu zu

thermo_style   custom step time temp lx vol pe press pxx
thermo_modify  flush yes
thermo 100

run 10000
Neighbor list info ...
  update every 1 steps, delay 0 steps, check yes
  max neighbors/atom: 2000, page size: 100000
  master list distance cutoff = 6.50679
  ghost atom cutoff = 6.50679
  binsize = 3.25339, bins = 12 12 12
  1 neighbor lists, perpetual/occasional/extra = 1 0 0
  (1) pair eam/alloy, perpetual
      attributes: half, newton on
      pair build: half/bin/atomonly/newton
      stencil: half/bin/3d/newton
      bin: standard
Per MPI rank memory allocation (min/avg/max) = 6.032 | 6.032 | 6.032 Mbytes
Step Time Temp Lx Volume PotEng Press Pxx 
       0            0         2000        36.15    47241.633   -14160.873    23288.361    22701.147 
     100          0.2    989.02147    36.764744    49692.936   -13622.055    -988.6933   -25.780117 
     200          0.4    1051.5685    36.828291    49951.058    -13547.42    1418.2218    1841.3065 
     300          0.6    1140.0173    36.913652    50299.197   -13474.779    1405.5382    1583.0517 
     400          0.8    1248.4148    37.014707    50713.426   -13406.497    264.95221   -412.05928 
     500            1    1362.6717     37.13816    51222.545   -13338.563   -3579.8677   -5511.4502 
     600          1.2    1439.2268    37.226954     51590.83   -13252.017   -2183.0129   -1179.9445 
     700          1.4    1531.6238    37.331172    52025.334   -13177.128   -2730.7608    -3398.199 
     800          1.6    1593.0901    37.448669    52518.118   -13092.133   -3359.5518   -3015.8536 
     900          1.8    1664.7773    37.535421    52883.948   -13019.172   -2469.5001   -3783.9405 
    1000            2    1726.7348    37.593715    53130.726   -12948.174    693.70796   -129.50007 
    1100          2.2    1761.1765    37.695731    53564.431   -12872.973    625.39795    1408.6053 
    1200          2.4    1810.1604    37.774333    53900.207   -12812.547    1101.9517    1198.1846 
    1300          2.6    1817.3087    37.901745    54447.458   -12738.469   -2070.5113   -2974.1831 
    1400          2.8    1859.5312    37.926127    54552.605   -12684.458    2511.6113    4245.0211 
    1500            3    1790.2992    38.097212    55294.201   -12576.726    96.398441    1836.0782 
    1600          3.2    1824.8324    38.187366    55687.678   -12522.798    -678.4634   -639.36194 
    1700          3.4    1823.7462     38.24207    55927.342   -12453.661    2708.9113     2866.559 
    1800          3.6    1875.2887    38.324571    56290.085   -12414.546    1716.9998    2567.2027 
    1900          3.8    1942.6041    38.367658    56480.153   -12391.522    1938.5919    3433.1051 
    2000            4    1938.6982    38.458964    56884.341   -12346.694   -1698.6066   -3702.8253 
    2100          4.2    1992.4578    38.476788    56963.468    -12344.51   -1758.5167   -4380.1102 
    2200          4.4    1993.2619    38.486819    57008.032   -12323.136    92.569077      230.674 
    2300          4.6    1981.4179    38.530722    57203.347   -12311.309   -2982.3107   -799.07871 
    2400          4.8    1994.3365     38.52673    57185.567   -12317.278   -2937.0607   -4861.5553 
    2500            5    2006.5932    38.509873    57110.541   -12321.122   -1653.5512   -1042.0677 
    2600          5.2    2032.2186    38.476536    56962.348   -12331.666   -77.923362   -2757.6263 
    2700          5.4     2039.253     38.46061    56891.645   -12344.924   -850.42023   -1127.4511 
    2800          5.6    2003.5236    38.456114    56871.696   -12342.815   -156.79819    447.55023 
    2900          5.8    1990.7059    38.447086    56831.652   -12326.164     2095.207    5244.4812 
    3000            6     2064.224    38.452752    56856.782   -12333.847    1497.1199    2422.1717 
    3100          6.2    2033.8151    38.462359     56899.41   -12315.117    1802.1014    1492.4369 
    3200          6.4    1993.2341    38.504838    57088.141   -12305.587    988.51233    3595.1048 
    3300          6.6    1943.7998    38.519173    57151.926   -12299.585    523.77986   -593.84116 
    3400          6.8    1990.4748    38.433012    56769.263   -12333.273    2565.5221   -381.34243 
    3500            7    2016.9014    38.397656    56612.734   -12341.679    5669.8307    2072.1838 
    3600          7.2    2021.7592     38.46232    56899.236   -12324.546    3320.1371    2744.5075 
    3700          7.4    2005.8211    38.493527    57037.845   -12308.416    1099.9812    2330.0198 
    3800          7.6    1992.1256    38.466968    56919.864   -12307.152    2718.1062    3065.7304 
    3900          7.8    1994.2501    38.481173    56982.947   -12331.274   -922.03412   -3364.8497 
    4000            8    2024.4794    38.482624    56989.395    -12356.23   -4063.7582   -2003.5643 
    4100          8.2    1980.7559    38.487837    57012.555    -12318.36   -385.76963   -21.464796 
    4200          8.4    1999.0187    38.513471     57126.55   -12299.324   -302.40508     1577.754 
    4300          8.6     1992.706    38.518336    57148.199   -12287.844    1055.6986     196.3074 
    4400          8.8    2051.0599    38.460249    56890.045   -12319.156    4047.5188    2817.6707 
    4500            9    2038.7802    38.458521    56882.376   -12342.245   -55.004201    1924.7489 
    4600          9.2    1996.3436    38.466283    56916.824   -12346.255   -1231.3434    105.68891 
    4700          9.4    1955.7123    38.482258    56987.765   -12323.302   -940.92154    -1152.959 
    4800          9.6     1997.104    38.494691    57043.021    -12330.92   -715.88334   -580.86003 
    4900          9.8    1999.9394    38.463997    56906.679   -12310.466    2611.7496    2785.4754 
    5000           10    2025.6778     38.48119    56983.022   -12308.492    2168.5828    2783.6071 
    5100         10.2    1975.9128     38.55058    57291.838   -12284.741   -673.55265    1032.0932 
    5200         10.4    1981.7253    38.534335     57219.44   -12293.097      -706.79   -2083.9808 
    5300         10.6    1998.6901     38.50052    57068.936   -12317.689   -720.07801   -2485.8275 
    5400         10.8    1986.4802    38.462731     56901.06   -12327.804     1771.996    2232.3782 
    5500           11    2013.2824    38.440019    56800.319   -12347.162    813.31738    3246.1718 
    5600         11.2    1985.9953    38.476571    56962.507   -12324.443   -362.24463    1862.0343 
    5700         11.4    2006.9836    38.502511     57077.79   -12311.367   -847.73942    -1790.809 
    5800         11.6    2024.9177    38.491258    57027.759   -12316.792    273.25814    -354.4064 
    5900         11.8    2013.9087    38.491949    57030.832   -12326.313    558.79149    1173.2372 
    6000           12    1988.4561    38.495195    57045.263   -12339.072   -2891.7737   -4979.4857 
    6100         12.2    1979.0307     38.41662    56696.658   -12346.398    2442.8429    1700.9933 
    6200         12.4    2001.7761    38.403024     56636.48   -12356.197    2267.3099    841.07329 
    6300         12.6     2008.161    38.401205    56628.434   -12337.308    4377.2055    6567.0696 
    6400         12.8    1985.7043    38.454174    56863.089   -12308.491    4513.7361    3376.3224 
    6500           13    2048.6478    38.482039    56986.793   -12325.438    233.03647     2481.148 
    6600         13.2    2034.4696     38.47597    56959.836   -12313.079    2746.3201    5422.4491 
    6700         13.4    2027.7303    38.470642    56936.178   -12316.873    1729.2861    3682.8596 
    6800         13.6    1951.6359    38.517795    57145.793   -12296.631   -291.01629    2626.9625 
    6900         13.8    2002.8056    38.470553    56935.783   -12329.462   -59.169126   -1312.8152 
    7000           14    1996.4281    38.435379    56779.756   -12338.112    1418.0539   -1217.8128 
    7100         14.2    1983.2224    38.460732    56892.188   -12352.637   -1450.6141   -2694.8032 
    7200         14.4     1938.274    38.497206    57054.203   -12332.934   -3269.5553   -2032.9873 
    7300         14.6    2015.3622    38.487729    57012.077   -12338.846   -2416.3605   -418.90708 
    7400         14.8    1984.1616    38.489858    57021.536   -12310.616    1708.1519    1687.2331 
    7500           15    2021.4303    38.511804    57119.131   -12323.261   -2088.5699   -4737.1383 
    7600         15.2    2004.2666    38.510258    57112.253   -12316.938   -1325.1356   -2893.8461 
    7700         15.4      2012.81    38.521465    57162.128    -12328.67   -4144.6633   -3922.4227 
    7800         15.6     1998.602    38.454463    56864.373   -12329.178     1681.151     899.1091 
    7900         15.8    1980.5995    38.476139    56960.585   -12320.581    1068.2363   -1055.5824 
    8000           16    1982.0531    38.505784    57092.347   -12305.827   -745.28834    583.87943 
    8100         16.2    1994.4344    38.504263    57085.583   -12293.564    1012.2595   -1397.8064 
    8200         16.4    2000.0111     38.58078     57426.59   -12285.565   -4191.7266   -3142.4717 
    8300         16.6    2017.7368    38.535642    57225.265   -12313.139   -3293.5316   -2187.0419 
    8400         16.8    1986.4792    38.483575    56993.617   -12326.127   -940.52425    727.02583 
    8500           17    1995.0387    38.476875    56963.857   -12335.491   -896.43157    -2056.357 
    8600         17.2    1957.2549    38.507501    57099.988     -12304.8   -738.06048   -4111.4527 
    8700         17.4    2034.2995    38.519202    57152.052   -12315.931   -1973.7435   -2400.7454 
    8800         17.6    2003.9336     38.54188    57253.058   -12296.678   -1496.3927   -3655.9406 
    8900         17.8    1995.9346     38.54163    57251.944   -12307.049   -2902.9499    -2830.522 
    9000           18    1987.9982    38.466283    56916.827   -12329.509    -105.5148    1870.2779 
    9100         18.2    1998.4166    38.448382    56837.402   -12356.754   -77.407649   -825.20394 
    9200         18.4    1944.2881    38.474054    56951.329   -12327.639    933.26481   -1346.1703 
    9300         18.6    1961.2709     38.53377    57216.925   -12297.892   -2052.5812   -585.39287 
    9400         18.8    1994.2276    38.546124    57271.973   -12305.525   -2806.7016   -3381.6466 
    9500           19    1978.9784    38.578076    57414.515    -12293.87   -4637.8417   -5362.9595 
    9600         19.2    2032.6795    38.563157    57347.927   -12312.376   -3956.1782   -2829.1083 
    9700         19.4     2042.913    38.503916    57084.041   -12318.003    -620.9781   -3235.6167 
    9800         19.6    2006.1576    38.476418    56961.825   -12325.272   -12.100957   -673.52802 
    9900         19.8    1974.4788    38.480064    56978.022   -12323.016   -455.47529   -174.04771 
   10000           20    1979.0653    38.447611    56833.983   -12323.237    2084.7029    925.32622 
Loop time of 22.751 on 4 procs for 10000 steps with 4000 atoms

Performance: 75.953 ns/day, 0.316 hours/ns, 439.541 timesteps/s
94.5% CPU use with 4 MPI tasks x no OpenMP threads

MPI task timing breakdown:
Section |  min time  |  avg time  |  max time  |%varavg| %total
---------------------------------------------------------------
Pair    | 18.918     | 19.108     | 19.396     |   4.1 | 83.99
Neigh   | 1.0583     | 1.0637     | 1.0682     |   0.4 |  4.68
Comm    | 1.5544     | 1.8642     | 2.0659     |  14.2 |  8.19
Output  | 0.0094714  | 0.01124    | 0.016431   |   2.8 |  0.05
Modify  | 0.53452    | 0.55099    | 0.56581    |   1.8 |  2.42
Other   |            | 0.153      |            |       |  0.67

Nlocal:    1000 ave 1011 max 987 min
Histogram: 1 0 1 0 0 0 0 0 0 2
Nghost:    2762 ave 2785 max 2729 min
Histogram: 1 0 0 0 0 0 2 0 0 1
Neighs:    39698 ave 40707 max 38243 min
Histogram: 1 0 0 0 0 1 0 0 1 1

Total # of neighbors = 158792
Ave neighs/atom = 39.698
Neighbor list builds = 888
Dangerous builds = 0

compute my_msd all  msd com no
fix my_msd_ave all ave/time 100 1 100 c_my_msd[1] c_my_msd[2] c_my_msd[3] c_my_msd[4] file A_MSD_All.dat


run 50000
Per MPI rank memory allocation (min/avg/max) = 6.408 | 6.408 | 6.408 Mbytes
Step Time Temp Lx Volume PotEng Press Pxx 
   10000           20    1979.0653    38.447611    56833.983   -12323.237    2084.7029    925.32622 
   10100         20.2    2009.6299    38.519786    57154.652   -12319.114   -1111.6378    426.12486 
   10200         20.4    2024.7601    38.522995    57168.937   -12300.008    -1047.279   -1415.8739 
   10300         20.6    2034.7823    38.480616    56980.473   -12313.575    1467.9013    1202.5763 
   10400         20.8    1981.9749    38.531572    57207.131   -12310.364   -2471.1513   -6183.1174 
   10500           21    2011.9726    38.454324    56863.757   -12326.358    2362.9777    1512.3285 
   10600         21.2     1973.444    38.497386    57055.001   -12303.922    725.01742    2920.6041 
   10700         21.4    2012.7215    38.490712    57025.335   -12322.864   -1161.0132   -2889.7973 
   10800         21.6    1973.9859    38.473514     56948.93   -12324.027   -590.65607    988.95042 
   10900         21.8    2003.9338    38.414776    56688.495   -12366.525     454.6119   -1678.4471 
   11000           22    1945.9104    38.414855    56688.844   -12337.463    3681.3488   -99.984497 
   11100         22.2    1984.4557    38.451734    56852.268   -12323.305    2384.1272    4098.6653 
   11200         22.4     1981.595    38.499309     57063.55   -12309.398   -562.36926   -111.88016 
   11300         22.6    1999.2397    38.499421    57064.049   -12316.105   -833.40733   -81.087492 
   11400         22.8    2025.6514    38.524645    57176.283   -12314.042   -2586.1904   -888.94493 
   11500           23    2036.1135    38.532475    57211.155   -12308.597   -1570.4743   -3356.6826 
   11600         23.2    2010.1663    38.489494     57019.92   -12318.804    796.31453   -3332.7298 
   11700         23.4    1984.7765    38.438272    56792.576   -12327.721     2216.754     608.9799 
   11800         23.6    1991.1852    38.506892    57097.277   -12335.232   -2387.0631   -2022.2244 
   11900         23.8    1983.1403    38.453285    56859.148   -12312.687    3394.3686    3565.7603 
   12000           24    2028.1237    38.471708    56940.908    -12308.81    2544.0832    1268.7501 
   12100         24.2    2008.6352    38.529387    57197.402   -12297.003   -1010.0803    1597.1979 
   12200         24.4     2009.964    38.469427    56930.783   -12324.714    812.98228    1082.1309 
   12300         24.6      1968.43      38.4943    57041.282   -12326.838    -1924.462    819.81017 
   12400         24.8     2012.764    38.506604    57095.998   -12341.659   -3699.0431   -7191.2033 
   12500           25    1994.7684    38.507379    57099.443   -12315.055    302.50722    17.144413 
   12600         25.2    1977.2988    38.511751    57118.896   -12297.428    1101.4691    1420.0472 
   12700         25.4    1995.9587    38.478267    56970.036   -12306.806    2438.4619    592.84001 
   12800         25.6    2004.8397    38.431738    56763.621   -12316.866     5311.079    6099.9197 
   12900         25.8    1976.7605    38.469171    56929.648   -12324.891    1187.6208    1897.2252 
   13000           26    1935.2426    38.505332    57090.339   -12320.607   -1887.7808   -3088.2135 
   13100         26.2    1974.0338    38.481413    56984.013   -12316.811    147.23659   -836.37025 
   13200         26.4    1996.3809    38.476285    56961.234   -12309.468     1525.281    1250.1375 
   13300         26.6    2006.3894    38.506349    57094.863   -12314.267   -890.50002   -2952.7372 
   13400         26.8     2011.411    38.459014    56884.564   -12323.521     2471.627    744.65138 
   13500           27    1982.7583    38.453713    56861.046   -12319.141    2935.6443    2166.2856 
   13600         27.2    1996.4476    38.487214    57009.789    -12334.69   -611.17113     337.9731 
   13700         27.4    2007.2094    38.561623    57341.087    -12325.42   -6266.5864   -7964.6127 
   13800         27.6    2024.1719    38.534339    57219.457   -12308.613   -3334.7309   -4040.8435 
   13900         27.8    2034.6113    38.564512    57353.976   -12315.652   -4534.2904   -3826.5893 
   14000           28    2026.3833    38.504023    57084.518   -12335.357   -2838.4227   -2804.1767 
   14100         28.2    2001.1816    38.459391    56886.236   -12340.069   -693.59061   -1549.7195 
   14200         28.4    2010.9057    38.440239    56801.295    -12349.42   -90.169665   -320.45332 
   14300         28.6    1977.8583    38.443836    56817.241   -12331.143    2116.4792    1880.0163 
   14400         28.8    2010.6143      38.4353    56779.404   -12318.744    3556.1641    4333.2655 
   14500           29    2023.8303    38.486757    57007.758   -12304.769    1095.1502     668.8077 
   14600         29.2    2039.9875    38.460581     56891.52   -12319.524    3187.7177    3365.9612 
   14700         29.4    1954.4187    38.487009    57008.875   -12286.443    3411.1277    3858.4418 
   14800         29.6     1978.597     38.49584    57048.128   -12308.642     232.8195    681.83404 
   14900         29.8    2006.4757    38.464009    56906.732   -12345.493     -83.6846   -531.50388 
   15000           30    1976.3637    38.446016    56826.909   -12334.743    1146.0523    2563.4479 
   15100         30.2    2016.7309    38.438358    56792.957   -12328.306    3072.7367    3358.5103 
   15200         30.4    1990.1031    38.473353    56948.213   -12303.493    2480.7236    2930.6307 
   15300         30.6    1981.3793    38.569296    57375.321   -12297.783    -3820.474   -3854.3986 
   15400         30.8    1999.2537    38.536819    57230.506   -12300.921   -2443.6555   -2722.4236 
   15500           31    2015.7932    38.510983    57115.477   -12303.017    285.68855   -2899.0285 
   15600         31.2    2037.3722    38.484692    56998.579    -12322.93    390.36529    1077.6224 
   15700         31.4    1993.4388    38.491319    57028.031    -12328.61   -2223.0078    -4653.882 
   15800         31.6    1991.7597    38.489615    57020.456   -12331.979   -1583.6725    80.841049 
   15900         31.8    2004.9213     38.41699    56698.294   -12337.851    3646.4493    5146.9778 
   16000           32    2015.2001      38.4753    56956.862   -12335.603   -1382.3017   -886.15531 
   16100         32.2    2044.6292    38.460983    56893.303   -12326.047    1564.2642    927.89012 
   16200         32.4    2034.5906    38.506803    57096.883   -12307.948   -221.39342    1342.8421 
   16300         32.6     2012.208    38.551593    57296.356   -12310.927   -3573.8214   -4578.7184 
   16400         32.8    1966.3159    38.533288    57214.778   -12317.287   -3878.8676   -3316.7977 
   16500           33    1980.6981    38.500948    57070.839   -12326.191   -1992.8226   -3011.8571 
   16600         33.2     2009.309    38.446562    56829.328   -12327.799     2620.182    1285.3866 
   16700         33.4    2032.5205    38.451679    56852.025   -12329.587    1970.5834     1325.035 
   16800         33.6    1976.6875    38.507848     57101.53   -12302.611     1013.766    3240.3913 
   16900         33.8    1994.1113     38.48799    57013.238   -12312.801     369.8527    227.69946 
   17000           34    1975.8924    38.517517    57144.554   -12301.816   -532.08823   -302.11155 
   17100         34.2    2001.6365    38.502867    57079.377   -12309.759   -50.850617    -371.1864 
   17200         34.4    1982.7099    38.605552    57537.278   -12295.054   -6548.8655   -7963.2362 
   17300         34.6    2038.8068    38.534885    57221.893   -12316.557    -3122.535   -3155.4426 
   17400         34.8    2042.5721    38.494817    57043.579   -12321.524    367.38564   -1681.2862 
   17500           35    1994.8378     38.45539    56868.486   -12322.707    2666.1292    4624.4999 
   17600         35.2    2024.6216    38.437129     56787.51   -12346.714    1115.5047     1426.225 
   17700         35.4    1969.7433    38.438351    56792.924   -12319.266    3605.9698    5658.3415 
   17800         35.6    1972.7502    38.523894    57172.942   -12303.995   -94.344259   -323.82742 
   17900         35.8    2019.8659    38.506873    57097.194   -12305.633    439.68178   -422.78541 
   18000           36    2011.4571    38.539402    57242.017    -12299.79   -2282.5314     -2125.21 
   18100         36.2    2008.9286    38.509441    57108.617   -12319.964   -51.754619   -1634.4067 
   18200         36.4    1989.4023    38.439517    56798.095   -12329.642     2839.117    2122.4295 
   18300         36.6    2001.0774    38.492364    57032.674   -12324.068   -436.70215   -2017.8236 
   18400         36.8    1968.9091    38.571254    57384.059   -12282.489   -3128.3157    235.45007 
   18500           37    2065.7285    38.529345    57197.215   -12312.802   -2081.6338    -4895.637 
   18600         37.2    2037.9332    38.535895    57226.388   -12317.569   -3032.2058   -4264.1247 
   18700         37.4     1972.815    38.506067    57093.608   -12316.266    -1260.877   -2468.2234 
   18800         37.6    1950.3149    38.481398    56983.947   -12306.421    1939.1507   -1424.2094 
   18900         37.8    1999.0456    38.467747    56923.323   -12321.162    1251.2425    225.12073 
   19000           38    1986.1092    38.551113    57294.214   -12305.833   -3764.9638   -7227.4354 
   19100         38.2    2026.2238    38.556495    57318.211   -12302.342   -3285.7593   -2835.7892 
   19200         38.4    2025.0241    38.529153    57196.361   -12293.055   -723.73508    910.61693 
   19300         38.6    1978.2542    38.549911    57288.856   -12295.503   -2131.0313   -1052.0902 
   19400         38.8    1987.2803    38.512364    57121.623   -12313.898   -1235.6304   -1649.1375 
   19500           39    2023.2248    38.481783    56985.657   -12337.755   -1191.9693   -863.76807 
   19600         39.2    1982.3042    38.478541    56971.255   -12328.849    612.71898   -974.70702 
   19700         39.4    1986.8453    38.431524     56762.67   -12346.129    2387.3862    2883.7477 
   19800         39.6    1920.5747    38.512428    57121.907   -12308.723   -1142.9558   -1948.1658 
   19900         39.8    2033.7554    38.477762    56967.795   -12336.997   -1134.8236     619.8101 
   20000           40    1996.5335    38.518882    57150.628   -12312.744    -1892.868   -1824.2133 
   20100         40.2    2026.4467    38.462044    56898.009   -12328.583    1285.4915    497.51144 
   20200         40.4    1997.0285    38.487923    57012.936   -12332.463   -1269.7001   -2911.6242 
   20300         40.6    1921.4241    38.491174    57027.387   -12308.591    323.13098   -516.02183 
   20400         40.8    1978.9375    38.530823    57203.796   -12315.401   -2752.7661   -6212.5844 
   20500           41    2007.5561    38.581106    57428.042   -12307.032   -5154.4675   -6290.9027 
   20600         41.2    1985.2992    38.557091    57320.873   -12289.802   -2871.9083   -5935.4723 
   20700         41.4    2008.0423    38.493453    57037.517   -12308.255    482.29639   -79.187976 
   20800         41.6    1994.3282     38.44312    56814.068   -12329.857    2420.3488    2348.3255 
   20900         41.8    1998.2645    38.451356    56850.592   -12346.702    391.65828    711.33082 
   21000           42    1967.2337    38.479298     56974.62    -12324.03     555.3967    73.891813 
   21100         42.2    1969.8771    38.527968    57191.083   -12308.413   -1896.1256   -3977.4259 
   21200         42.4    1990.5289    38.553842    57306.383   -12312.264   -4925.9956   -3914.4036 
   21300         42.6    2007.6316    38.489449    57019.721    -12323.52   -599.18822     959.9921 
   21400         42.8    1996.0508    38.502985      57079.9   -12323.012   -2904.5114   -2680.4552 
   21500           43    1993.9996    38.510397    57112.872   -12329.018   -2756.4949   -4183.4014 
   21600         43.2    1971.6722    38.516652    57140.706     -12319.6   -3059.5519    -4173.045 
   21700         43.4    2024.5636     38.49144     57028.57   -12328.167   -1093.4816    1451.2889 
   21800         43.6    2020.8816     38.50401     57084.46   -12317.472   -900.14723   -813.91169 
   21900         43.8    1976.4914    38.539197    57241.101   -12305.347   -2137.2832    -521.2005 
   22000           44     2009.355    38.442138    56809.716   -12340.188     491.9476    381.57941 
   22100         44.2    1958.0486    38.466969    56919.872   -12330.514   -1318.4578   -1385.0384 
   22200         44.4    1982.0885    38.470531    56935.685    -12349.13   -2383.6933   -3946.8404 
   22300         44.6    1972.4102        38.44    56800.237   -12321.597    3088.7352    4021.4159 
   22400         44.8    1980.7775    38.500359    57068.222   -12299.289    1376.8306    3956.9392 
   22500           45    2027.8271    38.454945     56866.51   -12315.204    3881.2167    4485.7637 
   22600         45.2    2031.1617    38.462607    56900.507   -12328.361     1377.698    1781.9642 
   22700         45.4    1999.5321    38.461227    56894.387   -12337.636   -124.86742    1988.6104 
   22800         45.6    2014.8922    38.443418    56815.389   -12356.363   -735.55124   -2033.2491 
   22900         45.8    1969.4282     38.46404    56906.867   -12339.176   -1216.9802   -2469.9255 
   23000           46    2022.7659    38.428135    56747.656   -12352.764     509.1929     313.7489 
   23100         46.2    2000.8418    38.496805    57052.417   -12319.342   -852.25798   -2232.7831 
   23200         46.4    2003.4514    38.493892    57039.468   -12307.825     878.0597    159.06535 
   23300         46.6    1989.4698    38.514709    57132.059   -12308.718   -958.11859   -268.71371 
   23400         46.8    1960.5534    38.522063    57164.789   -12322.555    -3229.883    -3316.938 
   23500           47    1959.2367     38.50565    57091.751   -12329.476   -2423.6661   -2805.9648 
   23600         47.2    1998.9379    38.470759    56936.695    -12333.29   -223.89647   -965.72539 
   23700         47.4    1972.6252    38.518532    57149.073   -12291.043    -207.9464   -783.80971 
   23800         47.6    1999.5034    38.587876    57458.281   -12279.081   -3044.9396     -3505.42 
   23900         47.8    2042.0076     38.50793    57101.894   -12306.595    717.77162    1527.5614 
   24000           48    2004.8427    38.476556     56962.44   -12311.841    1892.7021    1744.0842 
   24100         48.2    2025.3706    38.494218    57040.918   -12331.779   -1917.4583   -572.95822 
   24200         48.4    2001.4081    38.495156    57045.089   -12334.473   -3087.1055   -2807.0709 
   24300         48.6    1964.3535    38.452915    56857.505   -12330.464    1154.2822    3113.1557 
   24400         48.8    1987.9115    38.454649    56865.199   -12338.896    43.567178   -3128.8149 
   24500           49    2005.6012    38.525803    57181.441   -12319.958   -2722.3224   -2047.4334 
   24600         49.2      2007.83    38.525227    57178.876   -12303.242   -1087.5971     -2368.59 
   24700         49.4     1979.249    38.523752    57172.307   -12299.486   -128.16674    1870.0319 
   24800         49.6    1991.7917    38.452453    56855.457   -12332.496    1271.1769    3439.0358 
   24900         49.8    1960.5284    38.465958    56915.385    -12328.84    951.73413    453.04858 
   25000           50    2014.3855    38.484878     56999.41   -12332.993   -1665.3616   -4490.8392 
   25100         50.2    2013.7074    38.488631    57016.083   -12308.517    228.50813    -2395.334 
   25200         50.4    2031.9322    38.513461    57126.505   -12321.835   -817.81915   -2474.6908 
   25300         50.6    1975.2764    38.525209    57178.795    -12305.29    -1700.017    -4542.122 
   25400         50.8    1984.3523    38.471734    56941.027   -12315.812     1692.984    782.86152 
   25500           51    2000.0452    38.455047    56866.962   -12333.779    746.16375    2097.8516 
   25600         51.2    1980.6778    38.461289    56894.659   -12325.751    1786.1838    1354.9971 
   25700         51.4    2003.5785    38.474405    56952.887   -12317.016    1719.5776    793.34252 
   25800         51.6    1987.3771     38.53245    57211.043   -12294.669    -558.2552    1441.5875 
   25900         51.8    1977.5593    38.498209    57058.659   -12295.868    2387.8953    2860.5996 
   26000           52    1973.1483    38.504056    57084.663    -12315.56   -1383.0998   -1717.5972 
   26100         52.2    1983.4211    38.466435    56917.499   -12334.047   -436.74779   -2243.3605 
   26200         52.4    1985.8057    38.444009    56818.008   -12323.085    1985.2199    1240.4131 
   26300         52.6    2042.7367    38.479815    56976.912   -12328.845     1031.709   -288.46347 
   26400         52.8     2018.845    38.522554    57166.974   -12312.491   -1388.3724   -2345.2757 
   26500           53    2030.2268    38.471527    56940.107   -12337.796    -463.7008    410.67447 
   26600         53.2    1988.4576    38.445619    56825.148   -12343.227     331.3321    292.76807 
   26700         53.4    1972.5208    38.490825    57025.837   -12326.262   -741.58579    130.58861 
   26800         53.6    2055.0005    38.470783    56936.804   -12347.523   -478.85394   -62.285356 
   26900         53.8    2027.3948    38.446677    56829.841   -12334.537    1695.4656    2341.8669 
   27000           54    1980.2722    38.434803    56777.201   -12324.946    4577.7975    5398.3128 
   27100         54.2    2013.6633    38.365583     56470.99   -12365.184    4483.0439    2759.5001 
   27200         54.4     1947.531    38.465039    56911.305   -12343.296   -1991.7523   -1137.3782 
   27300         54.6    1995.8898    38.438923    56795.463   -12337.975    1312.2352    2808.4174 
   27400         54.8    1999.6064    38.467525    56922.337    -12321.88    1889.2539    3222.3895 
   27500           55    2046.1379    38.453049    56858.099   -12335.746    1621.6094    427.85657 
   27600         55.2    1989.7921    38.495481    57046.532   -12308.555    234.12142    268.01188 
   27700         55.4    2013.6942    38.433498    56771.417   -12328.547    3349.8883    5148.3052 
   27800         55.6    2004.5626    38.409755    56666.266   -12345.929    3525.6574    3289.1213 
   27900         55.8    2003.5654    38.455071    56867.069    -12355.19   -242.21171   -1936.7934 
   28000           56    2003.1655    38.459763    56887.887   -12335.887    1073.0324   -1787.3871 
   28100         56.2    2030.7151    38.425233    56734.802    -12321.06    4204.5987    5038.0485 
   28200         56.4    2004.2627    38.490368    57023.805    -12307.92    614.84248   -2271.5817 
   28300         56.6    1975.2837    38.513786    57127.951   -12301.137    642.20722    2639.7582 
   28400         56.8    2009.0026     38.45377    56861.297   -12325.773      2751.21    3111.2544 
   28500           57    1959.0384    38.457731     56878.87   -12321.549    1831.6611    1852.0963 
   28600         57.2    1984.3683    38.441499    56806.879   -12336.217    1689.2991    1298.1421 
   28700         57.4    2006.2521    38.484805    56999.085    -12326.67   -524.00788    2166.3496 
   28800         57.6    2013.1297    38.508053    57102.444   -12306.213    -395.9536    139.92621 
   28900         57.8    2003.6695    38.508773    57105.646   -12302.635    428.53441    458.73473 
   29000           58    1993.3004    38.499999     57066.62   -12317.496   -843.91547    264.11819 
   29100         58.2    1975.8872    38.482745     56989.93   -12323.406    37.716307    -463.4555 
   29200         58.4    1971.1465    38.504568    57086.942   -12315.329   -569.42109    1183.9975 
   29300         58.6    2025.4079    38.448843    56839.447   -12316.712    3673.7312    4567.3881 
   29400         58.8    2026.5732    38.513114    57124.959     -12312.9   -1591.1165   -3444.6192 
   29500           59    2010.7045    38.498899     57061.73   -12318.284    -645.0801     1145.411 
   29600         59.2     1988.608    38.495685    57047.439   -12326.598   -1139.0311    877.81059 
   29700         59.4    1985.9024    38.399124    56619.229   -12341.121    4643.7713    3940.0104 
   29800         59.6    1954.2606    38.431522    56762.663    -12308.95     4965.366    5075.1924 
   29900         59.8    2021.6967    38.457614    56878.355   -12317.882    2164.1996     154.2961 
   30000           60    2021.9498    38.543223    57259.042   -12321.459   -3902.3134   -3855.2736 
   30100         60.2    2006.3787    38.513404    57126.252   -12322.638   -1644.3654   -837.43257 
   30200         60.4    1976.2385     38.51081    57114.707   -12322.006   -2072.6595   -5008.3963 
   30300         60.6      2013.54    38.458318    56881.474   -12344.137    -160.6789   -927.33543 
   30400         60.8     1966.605    38.543379    57259.737   -12305.323    -3416.065    -2912.133 
   30500           61    2015.6414    38.532089    57209.437   -12307.356   -2063.5786   -1247.0884 
   30600         61.2    2010.0054     38.50274    57078.812   -12304.006    171.17424   -2556.7006 
   30700         61.4    1975.3123    38.515606    57136.051   -12313.942   -3148.2907    -4584.381 
   30800         61.6      2002.21    38.442252    56810.218   -12342.266     1081.382    1589.0451 
   30900         61.8    1962.6609    38.488325    57014.727   -12315.742   -23.863618   -2216.4822 
   31000           62    2020.5488    38.487866    57012.687   -12322.172   -168.58058   -1476.0114 
   31100         62.2    2022.4258    38.465875    56915.016   -12318.381    1557.8837   -216.55924 
   31200         62.4    2017.5381    38.462333    56899.294   -12317.593    3186.1521     2757.724 
   31300         62.6    2018.6437    38.437997    56791.359   -12326.166    3900.5985    3419.5148 
   31400         62.8    2008.5826    38.464601    56909.361   -12327.279    1268.6518    1071.0583 
   31500           63    1986.6121    38.497502    57055.519   -12309.068    459.99219   -438.79337 
   31600         63.2    2004.4838    38.479983    56977.661   -12302.614    1609.6614    1077.2141 
   31700         63.4    2017.8153    38.494263    57041.118   -12301.723    1066.1386   -797.36805 
   31800         63.6    1994.5259    38.561019    57338.391   -12303.124   -4257.5987   -4923.5454 
   31900         63.8     1990.253    38.444692    56821.039   -12327.629    1739.8569    3616.2965 
   32000           64    1952.3121    38.441348    56806.211   -12317.757    4691.3749    5522.6917 
   32100         64.2    1995.3881    38.442063    56809.381   -12328.708     2438.604    2982.4702 
   32200         64.4    2027.6436    38.487975    57013.169   -12313.641    828.28886   -485.69602 
   32300         64.6    2019.7026    38.520256    57156.744   -12300.373   -481.58112   -1180.7178 
   32400         64.8    2020.2743    38.489163    57018.448   -12313.782    1041.7184   -563.26498 
   32500           65    1976.7887    38.489175    57018.504   -12320.987   -1010.8343    -2570.418 
   32600         65.2    2001.4244    38.458222     56881.05   -12336.208    734.63837    2743.7504 
   32700         65.4    1958.9371    38.494409    57041.769   -12302.917     1153.926    2097.5703 
   32800         65.6     2017.593     38.53533    57223.873   -12301.408   -1498.4456   -1560.2698 
   32900         65.8    2034.7699     38.51241    57121.827   -12304.672   -257.94094    236.38922 
   33000           66    1997.1543    38.513279    57125.692   -12298.721    -750.7236    1026.9065 
   33100         66.2     1984.366    38.525444    57179.842   -12298.873   -1295.3303   -927.75962 
   33200         66.4    2006.8522    38.509339    57108.162   -12318.361   -2201.4334   -2354.7809 
   33300         66.6    1987.8943     38.52862    57193.987   -12311.234   -2571.3842   -37.548063 
   33400         66.8    1993.4306    38.514159    57129.611   -12305.596   -598.76508   -12.998927 
   33500           67     1995.019    38.580749    57426.449   -12280.638   -2245.4018   -5043.3257 
   33600         67.2    2020.5227    38.551336    57295.208   -12301.243   -3231.1773   -1615.9929 
   33700         67.4    1983.7876    38.497783    57056.767   -12308.494    959.74497     2540.162 
   33800         67.6    1996.2548    38.480484    56979.887   -12323.479    386.57493    2386.8163 
   33900         67.8    2001.7354     38.45081    56848.169   -12335.455    402.25544   -268.90316 
   34000           68    1961.3374    38.493636    57038.331    -12331.97   -2172.2312    -2414.574 
   34100         68.2    1969.5195    38.500865    57070.469   -12326.117   -1646.9836    243.09302 
   34200         68.4     2034.524     38.49474    57043.237    -12329.99   -1202.6228   -532.64945 
   34300         68.6    1990.9862    38.505158    57089.565   -12302.249   -435.38673     55.12383 
   34400         68.8    2022.9931    38.498945    57061.934   -12324.268   -1391.6994   -1062.2116 
   34500           69    2013.5254    38.522922    57168.615   -12332.432   -4413.8848   -4581.5632 
   34600         69.2    2012.8574    38.467056    56920.257   -12348.847   -1281.0263   -1036.5344 
   34700         69.4    1963.0338    38.460241    56890.009   -12328.809    460.59705    1115.7649 
   34800         69.6    1982.8032    38.448583    56838.294   -12313.679    2897.2204    3726.5349 
   34900         69.8    2011.0598    38.502707    57078.662   -12312.082   -430.35157    -1116.282 
   35000           70    1987.0942     38.55107    57294.021   -12295.832   -1607.6017   -2113.4792 
   35100         70.2    1971.9328     38.50732    57099.183   -12300.735    102.50989    1406.0529 
   35200         70.4    1979.8891    38.497045    57053.488   -12333.805    -2309.444   -1853.0599 
   35300         70.6     1971.061    38.438141    56791.993   -12333.935    1411.8459    2372.1842 
   35400         70.8    1993.4317    38.439141    56796.427   -12330.416    2347.4436    2632.1696 
   35500           71    2033.1547    38.464658    56909.613   -12326.599    2164.7431    2850.7406 
   35600         71.2    1987.8082    38.487262    57009.999   -12296.752     2837.405     1727.991 
   35700         71.4    2015.8538    38.467451    56922.011   -12323.498    1295.5437    1381.1746 
   35800         71.6     2007.982    38.463761    56905.631   -12339.229   -988.45989    -2518.051 
   35900         71.8    1992.5917    38.440242    56801.308   -12351.529    411.32959    1440.5219 
   36000           72    1966.4131    38.413217     56681.59   -12349.323    2239.3293    3625.2618 
   36100         72.2    1986.9803     38.50325    57081.079   -12333.055   -2122.0509   -3886.3345 
   36200         72.4    1984.8639    38.505047    57089.069    -12307.25    368.27079    -539.1113 
   36300         72.6    2020.8418     38.48161    56984.888   -12322.201    835.08371    1828.9138 
   36400         72.8     2024.953    38.500088    57067.016   -12326.008   -1241.0676   -3768.5273 
   36500           73    2005.9735     38.52705    57186.996   -12312.597   -2309.1559   -5969.1194 
   36600         73.2     2008.482    38.486276    57005.619   -12308.333    902.17268    1624.0731 
   36700         73.4    1996.9592    38.473023     56946.75   -12310.385    2263.2777   -1989.8021 
   36800         73.6    1978.4883    38.492812    57034.666   -12311.633    220.45959    981.44844 
   36900         73.8    2005.0197     38.51452    57131.215   -12327.044   -2435.1298    -1621.007 
   37000           74    2026.1457    38.493257    57036.645   -12336.344   -1864.2193   -602.73057 
   37100         74.2    2030.1534    38.502805      57079.1   -12320.628   -1746.2916   -1390.0534 
   37200         74.4     2004.662    38.525311    57179.252   -12308.265    -2307.118   -3805.6005 
   37300         74.6    1985.7576    38.501746     57074.39   -12322.136   -1608.8436    220.05837 
   37400         74.8    1975.9502    38.483332     56992.54   -12331.629   -1170.1998    -242.9725 
   37500           75     1985.615    38.513866    57128.306   -12319.254   -3870.0985   -1527.6389 
   37600         75.2     1998.982    38.554276    57308.318   -12298.337    -2356.448   -3712.9593 
   37700         75.4     2052.025    38.510917    57115.185   -12320.017   -187.64665   -438.83666 
   37800         75.6    1982.4956    38.494323    57041.386   -12301.763    1345.6799    1636.2693 
   37900         75.8    1949.3958    38.474155    56951.774   -12314.985    1475.2396    13.813713 
   38000           76    1970.6567    38.436508    56784.755   -12337.552    478.51048    1467.4567 
   38100         76.2    1966.5994    38.480804    56981.307    -12324.75   -516.35715   -385.18822 
   38200         76.4    1986.4629    38.503435    57081.902   -12316.012   -1598.8275   -2067.4334 
   38300         76.6    1998.0704    38.503973    57084.294   -12318.036   -590.04734    1324.7159 
   38400         76.8    2025.4378    38.442038    56809.269   -12332.182    1954.6995    2029.1202 
   38500           77    1990.9512    38.469357    56930.471     -12323.1      305.724    180.75558 
   38600         77.2    2001.8246    38.473927    56950.765   -12333.266   -414.95897    779.49591 
   38700         77.4    1991.0885    38.415092    56689.891   -12323.095    5029.6054     5112.443 
   38800         77.6    2021.2551    38.435354    56779.644   -12319.832    4188.8165    5091.8202 
   38900         77.8     2044.256    38.474324    56952.527   -12320.273    1483.7099    1968.2769 
   39000           78    1995.4432    38.473325    56948.089   -12311.283     2338.269    3034.8903 
   39100         78.2    2006.5434    38.446208    56827.762    -12337.52    2216.1513    4321.4594 
   39200         78.4    1975.9841     38.45536    56868.352   -12326.498    2064.2558    2582.2974 
   39300         78.6    2009.4252    38.428308     56748.42   -12328.583    4912.8748    3210.6276 
   39400         78.8    2025.2295     38.46428    56907.932   -12311.936    2619.5186    1826.6637 
   39500           79    2019.6811    38.527866    57190.628    -12303.52   -518.90627   -1603.1698 
   39600         79.2    2000.3464    38.519799    57154.713   -12311.412   -986.70421   -1428.6964 
   39700         79.4    1957.8798    38.464163    56907.414     -12317.4     1115.067    3019.7152 
   39800         79.6    1993.8619    38.462481    56899.948   -12343.745   -804.50373   -2905.8342 
   39900         79.8     2006.517    38.457065    56875.918   -12337.004     448.6748    1363.6694 
   40000           80     2029.146    38.477226    56965.414   -12315.563    1612.2315   -319.31275 
   40100         80.2    2005.6081    38.453614    56860.605   -12300.951     3581.718      5011.92 
   40200         80.4    1976.1964    38.468132    56925.032   -12308.797    2506.6017    722.93238 
   40300         80.6    1981.3494    38.491791     57030.13   -12318.309   -775.88681    -1543.539 
   40400         80.8    1998.5962    38.515886    57137.296   -12324.506    -3248.415   -3757.7886 
   40500           81    2001.1383    38.495074    57044.723   -12320.143   -1702.7343   -3704.8289 
   40600         81.2    1972.0548    38.527028    57186.894   -12293.172   -93.146824    801.80592 
   40700         81.4    2054.8535    38.540469    57246.768   -12308.587    -2406.439   -1376.1838 
   40800         81.6    2035.5314    38.530171    57200.893   -12302.866   -1680.8953   -3002.0435 
   40900         81.8    1991.9048    38.518227    57147.713   -12309.059   -964.95413    198.86538 
   41000           82    2011.0449    38.497625    57056.063   -12324.566   -844.37474   -330.77131 
   41100         82.2    1974.9564    38.540762    57248.077   -12306.851   -3035.3196   -1580.4722 
   41200         82.4    1990.4579    38.547956    57280.139   -12301.264   -2969.6194   -1017.1175 
   41300         82.6    2029.9178    38.547425    57277.773   -12298.187   -2697.7816   -1637.4815 
   41400         82.8    2034.2336    38.494648    57042.829   -12305.611    1762.6182    1421.6481 
   41500           83    1988.0533      38.4809    56981.736    -12311.33    1918.9872    988.75393 
   41600         83.2     2004.574    38.433218    56770.177   -12332.097    2162.5176    1740.6392 
   41700         83.4    1983.0309    38.451422    56850.885   -12323.544     2008.763    2510.6659 
   41800         83.6    2020.5996    38.415503     56691.71   -12337.537    3992.6147    5529.1291 
   41900         83.8    2007.4975    38.485827    57003.626   -12322.161    148.46514    1127.0981 
   42000           84    2000.1858     38.52112    57160.591    -12319.79   -2544.8574   -2439.8425 
   42100         84.2    1963.8384    38.474673    56954.077   -12305.874    1709.4086    2112.3324 
   42200         84.4    2009.5586    38.495461    57046.442    -12326.53    -1525.961   -2903.2942 
   42300         84.6     1997.396    38.534677    57220.965   -12316.497   -3441.9083   -2968.5233 
   42400         84.8    2011.7167    38.472204    56943.113   -12319.402    1146.1553   -819.84383 
   42500           85    1991.1994    38.458601     56882.73   -12313.267    3270.9546    5322.5268 
   42600         85.2    2000.5487    38.486994    57008.811   -12322.469   -855.56637   -951.35787 
   42700         85.4      1964.71     38.50891    57106.256   -12309.891   -1014.6966    -1786.022 
   42800         85.6    2035.9198    38.475304    56956.879   -12334.255   -374.82293     -364.155 
   42900         85.8    2025.5435    38.524706    57176.557   -12314.459   -2088.3659   -123.61012 
   43000           86    2021.2548    38.544634    57265.331   -12299.381   -2297.6766    779.63603 
   43100         86.2    1984.0901     38.53282     57212.69   -12281.383    717.68895   -890.40449 
   43200         86.4    2012.7418    38.473528     56948.99   -12319.146    1275.1746    1222.1268 
   43300         86.6    2002.6827    38.479195    56974.162    -12334.91   -1220.7808   -2214.6627 
   43400         86.8    1987.7013    38.474619    56953.835   -12331.101   -687.26803    190.89462 
   43500           87    1975.3862    38.438716    56794.546    -12313.93    3744.8306    5714.3024 
   43600         87.2    2020.5038    38.501091    57071.478   -12318.129   -762.88071    99.556871 
   43700         87.4    1985.4591    38.553269    57303.828   -12280.121   -1456.3432   -1339.6006 
   43800         87.6    2047.6574    38.513742    57127.754   -12321.684   -2468.8519    1398.3266 
   43900         87.8    2003.7422     38.51882    57150.355   -12323.749   -3278.9602   -784.72994 
   44000           88    1999.7154    38.526557    57184.797   -12326.556   -3510.5512   -3962.1919 
   44100         88.2     1942.894     38.54275    57256.936   -12292.605   -2386.6114   -3347.5543 
   44200         88.4    2024.4705    38.529496    57197.886   -12307.988    -1907.685   -1805.6782 
   44300         88.6    2014.9445    38.513876    57128.349   -12298.403    582.83102     1110.826 
   44400         88.8    2040.6578    38.484378    56997.187   -12339.356   -196.60474   -1498.5234 
   44500           89    1956.0958    38.497949    57057.505   -12319.977   -1473.9444   -941.35217 
   44600         89.2    1976.6842    38.451565    56851.519   -12326.592    2155.7484    2281.4939 
   44700         89.4    2037.7784    38.420675    56714.613   -12342.228    3816.9962    4657.5451 
   44800         89.6    2026.4764    38.473749    56949.971   -12331.855   -540.32039   -1560.4555 
   44900         89.8    1995.4859     38.48881    57016.882   -12325.923   -874.66133    1869.4906 
   45000           90    1991.1075    38.494794    57043.478   -12346.032   -2924.4581   -3753.7949 
   45100         90.2    2008.3999     38.41449    56687.229   -12343.983    2889.3644    2041.9448 
   45200         90.4    1998.9132    38.454822    56865.965   -12315.496    2886.0289    1293.9182 
   45300         90.6    2022.1181    38.506311    57094.694   -12311.369    74.071921   -1580.2911 
   45400         90.8    2017.2835    38.509653     57109.56    -12304.59    68.272876   -1208.5572 
   45500           91    1963.5772    38.493769    57038.921   -12303.846    947.20586    -300.0808 
   45600         91.2    1955.6292    38.474944     56955.28   -12314.524    1653.0813    2221.5716 
   45700         91.4    2006.4286    38.470099    56933.768    -12334.03   -511.19606   -3374.6303 
   45800         91.6    2039.9498    38.494719    57043.145   -12332.528   -1552.8465   -821.50682 
   45900         91.8    2000.8138    38.479257    56974.435   -12303.624    2392.6731     3410.594 
   46000           92    1994.2542    38.494077    57040.292   -12307.825     1280.775    3020.6389 
   46100         92.2    1979.8735    38.468029    56924.575   -12327.284    846.72969   -2285.3759 
   46200         92.4     1954.389    38.470607    56936.021    -12324.17    27.684849    723.76085 
   46300         92.6    2037.4139    38.420887     56715.55   -12351.362    2153.8142   -214.99323 
   46400         92.8    2013.6569    38.475701    56958.639   -12312.766    2265.1228    2236.6645 
   46500           93      2010.78    38.556045    57316.206   -12299.664    -1710.558    -2398.885 
   46600         93.2    2018.9105    38.583012    57436.554   -12294.918   -3771.6276   -2985.0851 
   46700         93.4    1998.0117    38.481879    56986.084   -12311.454     134.7998     2603.089 
   46800         93.6    1972.1332    38.470772    56936.752   -12312.602    1917.0176   -689.79725 
   46900         93.8    2036.0699     38.44125    56805.776   -12331.962    2678.7692     3707.212 
   47000           94    2030.2943    38.460379    56890.622   -12326.326    2093.5312    2290.0324 
   47100         94.2     2015.132    38.450383    56846.273   -12344.194   -98.929454    1413.3118 
   47200         94.4    1959.3856    38.520617    57158.353   -12334.574   -4704.0838   -1399.2656 
   47300         94.6     1948.212     38.43441    56775.458   -12317.239    3584.2478    5340.2826 
   47400         94.8    1992.3666    38.471091    56938.172   -12315.814    638.44101   -2043.8293 
   47500           95    1971.8056    38.535776    57225.861   -12301.412   -2375.4124    595.40412 
   47600         95.2    2013.3734    38.491992    57031.025   -12322.683   -385.70016    511.12463 
   47700         95.4    1985.2193    38.491559    57029.098    -12310.07    1304.1318    1674.8965 
   47800         95.6    2021.2907    38.506168    57094.058   -12301.544    68.810007   -996.35246 
   47900         95.8    2035.8931    38.506916    57097.384   -12298.034    1333.3676    1523.2147 
   48000           96    1998.5842    38.492776    57034.509   -12300.278    1564.7933     2369.184 
   48100         96.2    1955.6801    38.461618    56896.119   -12297.265    3774.1697    5814.2437 
   48200         96.4    1981.7244    38.494582    57042.535   -12305.908    920.73057    1849.6526 
   48300         96.6    1988.7954    38.476346    56961.508   -12303.819    3152.6349    6282.7273 
   48400         96.8    2068.3417      38.4778    56967.964   -12336.796   -453.13883    -764.5173 
   48500           97    1971.2164    38.454664    56865.266   -12313.831    3425.1758    2258.5869 
   48600         97.2    1970.8035    38.449117    56840.662    -12328.47     2133.533    3422.9488 
   48700         97.4    1972.5637    38.459837    56888.217   -12321.439    1897.3381     2756.834 
   48800         97.6    2025.9467    38.447708    56834.412   -12317.005    3728.9477    4378.9893 
   48900         97.8     2040.498    38.462143    56898.451   -12320.621    2036.6621    3313.1854 
   49000           98    2009.5216    38.488554    57015.741    -12314.66    498.90766   -1159.9734 
   49100         98.2    1982.7431    38.448218    56836.675   -12315.517    3352.1727    5134.3188 
   49200         98.4    1985.3541    38.439917    56799.869   -12322.094    3697.7996    2096.5328 
   49300         98.6    2026.3357    38.466331    56917.036   -12329.833    998.00652    1452.1939 
   49400         98.8    2013.0375    38.477113    56964.913   -12303.898    1857.6862    3661.0463 
   49500           99     2053.775    38.490719    57025.366   -12326.378   -1442.9139   -4499.0642 
   49600         99.2    1985.8936    38.475859    56959.345   -12318.404    1590.4334    3043.9442 
   49700         99.4    2010.7392    38.448323    56837.139    -12335.56    2187.0624    3172.0034 
   49800         99.6    1997.7557    38.480466    56979.808   -12314.323    1624.4386    1597.3702 
   49900         99.8    2024.8965     38.51208    57120.357   -12305.609    113.09886   -765.81105 
   50000          100    1980.3636    38.487694    57011.921   -12278.569    4393.8599    7284.4457 
   50100        100.2    2001.6534    38.508227    57103.216   -12300.307     502.9657    351.29883 
   50200        100.4     1954.263    38.529012    57195.729   -12305.556   -1746.0222   -3275.1006 
   50300        100.6    2002.5582    38.487782    57012.314   -12333.387   -1202.6768   -116.43854 
   50400        100.8     2013.748    38.498128    57058.301   -12327.847   -1785.8352    974.77676 
   50500          101    2015.1599    38.519287    57152.433   -12302.514   -848.08813   -19.009936 
   50600        101.2    2041.2043     38.53922    57241.203   -12311.175   -2899.1267   -4123.9404 
   50700        101.4     2020.694    38.454516    56864.607   -12321.671    2075.7427    241.72816 
   50800        101.6    2010.3274      38.4324    56766.551   -12341.273    1414.0263    1581.4189 
   50900        101.8    1994.2247    38.449897     56844.12   -12335.258    1094.8213    3406.4743 
   51000          102    1988.9685    38.495657    57047.314   -12314.196   -844.22118   -2202.8468 
   51100        102.2    2009.5821    38.498732    57060.989    -12305.22    861.46844    894.74473 
   51200        102.4    2075.5312    38.507943    57101.952    -12321.99   -1532.8201   -386.63984 
   51300        102.6    2055.7253    38.504738    57087.698   -12311.556   -1393.2932   -2642.6473 
   51400        102.8    2027.4325    38.490453    57024.183   -12329.644   -1427.1393    1743.4668 
   51500          103    1974.8921    38.519137    57151.763    -12321.51   -3816.8597   -2866.7319 
   51600        103.2    2004.8687     38.50988    57110.569   -12340.894    -4331.955   -4941.1193 
   51700        103.4    1976.5513    38.497665    57056.242   -12317.805   -838.29778    840.20331 
   51800        103.6    2044.4676    38.475516    56957.818   -12325.125   -60.824895    107.87313 
   51900        103.8    1990.3764    38.516532    57140.168   -12307.917   -2099.3425   -2389.1458 
   52000          104    1971.0769    38.477948    56968.623   -12317.873    452.56479    2284.1206 
   52100        104.2    1992.0971    38.449822    56843.788   -12353.406   -503.93855    -1389.079 
   52200        104.4    1974.7248    38.446456    56828.857     -12353.7   -286.06989    551.04707 
   52300        104.6    1983.6497    38.509601     57109.33   -12326.535   -2616.1237   -1028.9059 
   52400        104.8    1972.2594    38.548939    57284.523   -12304.223   -3978.0128    -2816.237 
   52500          105    2017.0818    38.471332    56939.239   -12328.895   -258.55138    601.42042 
   52600        105.2    1994.6795    38.507505    57100.003   -12314.823   -452.90993   -2731.8488 
   52700        105.4    2041.7856    38.479193    56974.154   -12322.061    633.68035   -751.61369 
   52800        105.6    2013.2945    38.475788     56959.03   -12296.819    3320.2684    2474.3973 
   52900        105.8    2059.4966    38.485669    57002.924   -12318.083    27.029448     588.5276 
   53000          106    1955.6516    38.527103    57187.229   -12295.158    -695.9612   -230.52136 
   53100        106.2    1990.7363    38.490122    57022.713   -12321.884   -452.27088   -64.527332 
   53200        106.4    2005.8395    38.479763    56976.683   -12331.915   -485.22084   -892.25428 
   53300        106.6    1990.5028    38.518784    57150.195   -12315.713   -2770.2432   -1073.9933 
   53400        106.8    2046.9068    38.496235    57049.886   -12317.939   -705.43148    1057.4604 
   53500          107    1991.2845    38.507059    57098.022   -12290.063    2497.7257    4240.8857 
   53600        107.2     2031.195    38.435953    56782.297   -12326.787    3267.6509    2979.4019 
   53700        107.4     1986.899    38.452901    56857.445   -12337.359    690.06362    539.11468 
   53800        107.6    2001.6314     38.46669    56918.634   -12341.733   -652.98698   -535.45928 
   53900        107.8    1980.9081    38.480693    56980.815    -12320.72   -693.92902   -752.24762 
   54000          108     1992.097    38.535968    57226.717   -12306.559   -2068.9752   -1918.9819 
   54100        108.2    2002.5169    38.558323    57326.368   -12286.517    -1502.856   -127.48341 
   54200        108.4    2022.2034    38.534489    57220.127   -12295.042   -1086.3556    866.49759 
   54300        108.6    2013.8391    38.547738    57279.167   -12306.579   -2859.3712   -4968.2127 
   54400        108.8    1986.4547     38.45172    56852.204   -12328.673    1837.7093    3592.5605 
   54500          109    1996.3518    38.466328    56917.025   -12333.545   -416.96281   -2539.9152 
   54600        109.2     1995.598    38.486073    57004.717   -12323.216   -81.188118    732.97531 
   54700        109.4    2004.0378    38.524894    57177.395    -12311.24   -1720.7439   -1075.6032 
   54800        109.6    2029.9807    38.515031    57133.491   -12300.597    317.28918    2189.2373 
   54900        109.8    2014.6924    38.534535    57220.333   -12293.096   -501.14287    -4563.252 
   55000          110    2014.7152    38.496393    57050.588   -12328.098   -2075.1668   -4612.6254 
   55100        110.2    1979.4411    38.485197    57000.826   -12319.428    -179.6752    2205.3925 
   55200        110.4    1978.5213    38.508898    57106.202   -12313.367   -1669.2347   -1648.9889 
   55300        110.6    1963.5747    38.561511    57340.586   -12298.021   -2708.4777   -2705.7235 
   55400        110.8     2060.948    38.482716      56989.8   -12321.095    1035.6272   -2839.9418 
   55500          111    2038.9962    38.482813    56990.234   -12311.844    2183.3699    2241.4555 
   55600        111.2    1996.9583    38.501047    57071.279    -12318.11   -678.75487   -2418.5705 
   55700        111.4    1955.1873    38.455984     56871.12   -12314.514    2532.9706    4970.0699 
   55800        111.6    1981.3003    38.482044    56986.815   -12324.544   -567.06819    513.40745 
   55900        111.8    1976.3736    38.505325    57090.306   -12310.475   -533.72624    63.667462 
   56000          112    1988.1317    38.485822    57003.601   -12310.624    749.22374   -814.17099 
   56100        112.2    2021.3454    38.457389    56877.356   -12325.895    2086.6965    2154.7753 
   56200        112.4    1995.7817    38.429149    56752.149   -12330.114    3449.6414    5500.4317 
   56300        112.6    1965.6949    38.419575    56709.744   -12320.963     5538.646    2706.8184 
   56400        112.8    1999.6283    38.489785    57021.213   -12315.861    869.47005   -1576.5654 
   56500          113    2019.4995    38.504165    57085.149   -12306.384    300.08569    215.50988 
   56600        113.2     2001.037    38.500875    57070.514   -12305.552    566.15936    936.47332 
   56700        113.4    1977.0202    38.492761     57034.44   -12306.833    594.27953   -249.33652 
   56800        113.6    1975.5299    38.469393    56930.634   -12325.623   -327.94192    135.62922 
   56900        113.8    1972.9099    38.487253    57009.962    -12341.75   -2333.5188   -2321.8521 
   57000          114    1968.2328    38.457419    56877.485   -12331.187    271.05407   -226.01801 
   57100        114.2    2003.9165    38.489851    57021.505   -12318.176   -568.80858   -3943.8187 
   57200        114.4    1995.3523    38.541035    57249.293    -12308.21    -2987.367   -3661.8623 
   57300        114.6    1957.7113    38.536282    57228.114   -12299.858   -1955.9647   -4067.5925 
   57400        114.8    1953.1056    38.510148    57111.763   -12294.472   -101.37499   -520.80005 
   57500          115    2010.8085    38.594994    57490.082   -12297.113   -6639.4514   -4163.0156 
   57600        115.2    2027.4708    38.547853     57279.68   -12291.968   -2070.7757   -1977.1982 
   57700        115.4    2006.3984    38.506876    57097.206   -12306.193    188.62323   -801.49329 
   57800        115.6    2022.3749    38.467005    56920.031   -12335.733    949.10422    1638.6206 
   57900        115.8    2021.9517    38.461876    56897.266   -12338.985   -119.25372    1970.4126 
   58000          116    2035.4156    38.478123      56969.4   -12346.491   -1899.7573   -3523.2373 
   58100        116.2    1993.8592     38.50423    57085.437   -12319.564   -646.74135   -1889.4699 
   58200        116.4    2011.2773    38.516222    57138.791   -12318.542   -2069.3588   -679.86546 
   58300        116.6    2004.4823    38.584884    57444.915   -12306.273   -6959.7246   -7250.2841 
   58400        116.8    2057.6159    38.493264    57036.677   -12331.009   -1785.3049    -1898.453 
   58500          117    1982.2186    38.497452    57055.296   -12314.106   -560.35536   -1123.9324 
   58600        117.2    1979.8925    38.457939    56879.796   -12326.913    62.533093   -816.61153 
   58700        117.4    1978.5304    38.499671    57065.162   -12317.386   -897.29476    1371.8106 
   58800        117.6    2038.3517    38.500823    57070.283   -12320.435   -813.16678   -143.27818 
   58900        117.8    2003.3859    38.548801    57283.904   -12284.986    -883.8699   -820.19887 
   59000          118    2008.3178    38.529198    57196.561   -12300.249   -986.58661   -688.49621 
   59100        118.2    2013.6277    38.444014    56818.029   -12333.938    1781.5315    3100.5446 
   59200        118.4    1987.5454    38.479527    56975.636   -12325.958   -280.62138   -1441.1204 
   59300        118.6    2005.5298    38.489538    57020.116   -12325.292   -210.11123   -2746.6699 
   59400        118.8    2028.5781    38.461076    56893.716   -12323.331    1727.5896    1670.4411 
   59500          119    1995.9729    38.477617    56967.153    -12306.95    1789.8427    1564.7215 
   59600        119.2    1987.7968    38.482051    56986.846   -12317.106    1020.2082    1306.4624 
   59700        119.4    1994.7462    38.471944     56941.96   -12338.505   -1258.4756    246.07915 
   59800        119.6    1957.8165    38.459053    56884.736   -12324.959    2113.6133    1726.6579 
   59900        119.8     1981.245    38.488793    57016.804   -12305.829     1395.354      472.776 
   60000          120    2012.5181    38.515226    57134.356   -12305.324    -133.4647    -393.8663 
Loop time of 120.114 on 4 procs for 50000 steps with 4000 atoms

Performance: 71.932 ns/day, 0.334 hours/ns, 416.272 timesteps/s
94.3% CPU use with 4 MPI tasks x no OpenMP threads

MPI task timing breakdown:
Section |  min time  |  avg time  |  max time  |%varavg| %total
---------------------------------------------------------------
Pair    | 99.099     | 100.1      | 101.38     |   8.7 | 83.33
Neigh   | 5.5898     | 5.6404     | 5.6828     |   1.5 |  4.70
Comm    | 9.3508     | 10.627     | 11.6       |  26.3 |  8.85
Output  | 0.057692   | 0.066381   | 0.069496   |   1.9 |  0.06
Modify  | 2.7895     | 2.839      | 2.8743     |   2.1 |  2.36
Other   |            | 0.8438     |            |       |  0.70

Nlocal:    1000 ave 1011 max 993 min
Histogram: 1 1 0 0 1 0 0 0 0 1
Nghost:    2746.75 ave 2773 max 2714 min
Histogram: 1 0 0 0 0 1 1 0 0 1
Neighs:    39461.8 ave 40692 max 38674 min
Histogram: 2 0 0 0 1 0 0 0 0 1

Total # of neighbors = 157847
Ave neighs/atom = 39.4618
Neighbor list builds = 4538
Dangerous builds = 0


Total wall time: 0:02:22
