LAMMPS (3 Mar 2020)
units		  metal
atom_style	  atomic
timestep 	  0.002
dimension	  3
boundary	  p p p

lattice         fcc  3.615
Lattice spacing in x,y,z = 3.615 3.615 3.615
region          Wbox   block 0 10 0 10 0 10

#Here 1 is number of atom types, Wbox is region-id
create_box      1 Wbox
Created orthogonal box = (0 0 0) to (36.15 36.15 36.15)
  1 by 2 by 2 MPI processor grid

#Here 1 is ith atom type, box is keyword
create_atoms    1 box
Created 4000 atoms
  create_atoms CPU = 0.000861645 secs

##Be careful to use eam/alloy type Mishin copper potential with funcfl format

pair_style eam/alloy
pair_coeff * * /home/ldoan/lammps-3Mar20/potentials/Cu_mishin1.eam.alloy Cu
Reading potential file /home/ldoan/lammps-3Mar20/potentials/Cu_mishin1.eam.alloy with DATE: 2007-10-12

variable T1 equal 300.0
velocity all create ${T1} 234965 mom yes dist gaussian loop all
velocity all create 300 234965 mom yes dist gaussian loop all

neighbor 1.0 bin
neigh_modify every 1 delay 0 check yes

fix npt_thermostat all npt temp ${T1} ${T1} 0.2 iso 0.0 0.0 0.2 drag 0.20
fix npt_thermostat all npt temp 300 ${T1} 0.2 iso 0.0 0.0 0.2 drag 0.20
fix npt_thermostat all npt temp 300 300 0.2 iso 0.0 0.0 0.2 drag 0.20

dump atompos all custom 1000 dump.pos.*.dat id type x y z vx vy vz

thermo_style   custom step time temp lx vol pe press pxx
thermo_modify  flush yes
thermo 100

run 10000
Neighbor list info ...
  update every 1 steps, delay 0 steps, check yes
  max neighbors/atom: 2000, page size: 100000
  master list distance cutoff = 6.50679
  ghost atom cutoff = 6.50679
  binsize = 3.25339, bins = 12 12 12
  1 neighbor lists, perpetual/occasional/extra = 1 0 0
  (1) pair eam/alloy, perpetual
      attributes: half, newton on
      pair build: half/bin/atomonly/newton
      stencil: half/bin/3d/newton
      bin: standard
Per MPI rank memory allocation (min/avg/max) = 4.767 | 4.767 | 4.767 Mbytes
Step Time Temp Lx Volume PotEng Press Pxx 
       0            0          300        36.15    47241.633   -14160.873    3420.1323    3379.5149 
     100          0.2    165.15594    36.241124    47599.782   -14080.889   -909.12859   -771.55389 
     200          0.4    173.11509    36.242162    47603.874   -14068.481    505.12335    558.41877 
     300          0.6    192.16437    36.257334    47663.682   -14060.151    -217.1518   -172.32637 
     400          0.8    210.29821    36.266507    47699.869   -14050.762   -25.534404   -73.161166 
     500            1    226.13232    36.272407    47723.154   -14040.314     491.7498    285.88045 
     600          1.2    244.93107    36.294824    47811.688   -14032.276   -1105.3201   -1204.2623 
     700          1.4    265.33535    36.279303    47750.376   -14026.419    1568.0108    1419.6301 
     800          1.6    277.63897    36.315882    47894.959   -14018.545   -1667.4884   -1744.5878 
     900          1.8    288.01469    36.290512    47794.651   -14012.075    2050.4513    1862.7127 
    1000            2    290.43986    36.320906    47914.837   -14004.449   -690.10345   -780.60638 
    1100          2.2    289.33307    36.322018    47919.239   -13997.906   -153.59106   -172.67712 
    1200          2.4    302.08247    36.317219    47900.249     -14001.1    309.07184    493.89088 
    1300          2.6    299.89082    36.323461    47924.949   -14000.464   -388.61496    -147.0671 
    1400          2.8    302.33104      36.3096    47870.106   -14003.978     832.1616     997.0076 
    1500            3    290.54053    36.328223      47943.8   -13999.288   -1013.3024   -1231.3572 
    1600          3.2    304.50121    36.309131    47868.253   -14006.306    698.77116    795.86499 
    1700          3.4     304.6233    36.316955    47899.202   -14004.772   -8.7540264    1.0787379 
    1800          3.6    296.18405    36.330505    47952.836   -13997.865   -984.78043   -1037.1122 
    1900          3.8    300.28082    36.300639    47834.673    -13999.37    2366.6609     2461.451 
    2000            4    300.78592    36.334202    47967.478   -14002.327   -1804.0172   -1569.8224 
    2100          4.2    302.49599    36.308851    47867.145   -14006.629    726.83948     552.8505 
    2200          4.4    300.89588    36.318576    47905.618   -14005.287   -325.61907   -354.22263 
    2300          4.6    299.31408     36.31814    47903.891   -14001.265    141.16617    88.435565 
    2400          4.8    306.08141    36.317227     47900.28    -14001.12    383.89178    199.59452 
    2500            5     303.4774    36.329021    47946.961    -14000.67    -1053.446   -786.46124 
    2600          5.2    293.80017    36.306961    47859.672    -14001.19    1383.7744    1455.6426 
    2700          5.4    295.96253    36.331944    47958.534   -14002.713   -1613.3245   -1323.2878 
    2800          5.6    295.55149    36.304393    47849.516   -14000.985    1745.6882    1827.3303 
    2900          5.8    300.83348    36.325579    47933.333   -14001.637   -735.80266   -680.41771 
    3000            6    302.49822    36.323046    47923.306   -13999.544   -187.55751   -207.08778 
    3100          6.2    305.63058    36.318014    47903.394   -13999.988    373.20508    281.41038 
    3200          6.4      301.851    36.322049    47919.363   -14002.241   -362.02472   -449.25836 
    3300          6.6    300.52227    36.312373    47881.075   -14004.422    577.74915    722.78965 
    3400          6.8    297.53359      36.3254    47932.626   -14002.776   -844.83388   -1108.9088 
    3500            7     298.5316    36.316278    47896.522   -14001.222    391.43234    449.20964 
    3600          7.2    305.24229    36.317423    47901.054   -14001.521    335.63534    129.23672 
    3700          7.4    307.92408    36.329906    47950.463   -14001.664   -1131.2327   -1328.2879 
    3800          7.6    296.75137    36.301076      47836.4   -13999.241    2370.7324    2252.5178 
    3900          7.8    297.37463    36.338771    47985.574   -14002.869   -2448.4587   -2398.2569 
    4000            8    297.72563    36.310778    47874.765   -14003.161    827.06697    1115.8789 
    4100          8.2    303.36058    36.319425    47908.975   -14004.267    -199.3489   -334.53483 
    4200          8.4    303.11559    36.320288    47912.393   -14000.372    16.323019    238.17658 
    4300          8.6    304.11462    36.317038     47899.53   -13999.447    507.17417    509.64611 
    4400          8.8    302.96851    36.329918    47950.513   -14002.456   -1224.0506   -911.98375 
    4500            9    298.68898     36.30544    47853.655   -14003.794     1444.316    1538.0207 
    4600          9.2    295.02913    36.330184    47951.566   -14001.982   -1344.0492   -1404.5951 
    4700          9.4    304.80344    36.307688    47862.545    -14004.66    1131.5242    1339.8684 
    4800          9.6    301.18131    36.322795    47922.312   -14000.182   -200.05891   -23.187703 
    4900          9.8    304.64387    36.326587    47937.325   -14000.619   -670.66027   -784.40357 
    5000           10    309.74237    36.312048    47879.788   -14005.164    613.32478    820.74705 
    5100         10.2    297.13039    36.322632    47921.668    -14002.29   -456.91537   -417.10133 
    5200         10.4    299.89145    36.312502    47881.587    -14004.98    457.59496    430.70897 
    5300         10.6    301.08955    36.321878    47918.686   -14004.203   -537.31672   -295.25464 
    5400         10.8    301.64104    36.318633    47905.843   -14000.286    212.93148    13.103799 
    5500           11    300.12415    36.318687    47906.055   -13998.257    392.10807    749.44214 
    5600         11.2    302.60529    36.327819    47942.203    -14002.87   -1096.0776   -1213.2336 
    5700         11.4    297.93958    36.298703    47827.019   -14004.157    2077.9926    2037.3819 
    5800         11.6    295.77096    36.341243     47995.37   -14002.854   -2761.5858   -2759.4226 
    5900         11.8    300.03909    36.308155    47864.392   -14002.864     1173.558    1083.1529 
    6000           12    299.38085    36.322386    47920.696   -14000.512   -246.70924   -257.30787 
    6100         12.2    304.29401    36.320128    47911.757   -14002.368   -69.500479   -205.57658 
    6200         12.4    303.65216    36.313073    47883.845   -14004.074    470.60383    358.56088 
    6300         12.6    302.06842    36.325504    47933.037   -14005.458   -1146.7466   -1048.7722 
    6400         12.8    296.71603    36.305348    47853.291   -14003.314    1398.4189    1280.0853 
    6500           13    297.64994    36.329425     47948.56   -14001.346   -1187.9807   -1423.3738 
    6600         13.2    307.34272    36.312311     47880.83   -14003.015    726.94067    847.00273 
    6700         13.4    303.55415    36.319219    47908.162   -14000.518    162.52386    330.50754 
    6800         13.6    296.70275     36.33062    47953.291   -14000.818   -1263.5559   -1371.9027 
    6900         13.8    297.12841     36.31053    47873.785    -14003.96      785.019    381.41678 
    7000           14    298.65306    36.320939     47914.97   -14004.101   -473.64885   -494.48539 
    7100         14.2    302.69641    36.315058    47891.698   -14002.799    407.88161     380.3343 
    7200         14.4    309.01353    36.323286    47924.257   -14002.512   -453.18949    -675.5149 
    7300         14.6     305.3835    36.319793    47910.433   -14001.085    127.38866   -192.29623 
    7400         14.8    297.26821    36.313832    47886.846   -14002.517    522.15439    558.71484 
    7500           15     297.1446    36.328212    47943.759   -14003.238   -1196.9569   -1275.6118 
    7600         15.2    297.94662    36.301136    47836.636   -14002.141    2029.5408    2114.3724 
    7700         15.4    303.09527    36.340697    47993.207   -14002.132   -2543.8745   -2726.9782 
    7800         15.6    303.48814    36.312203    47880.404   -13999.735    1096.5955    919.11398 
    7900         15.8    303.78739    36.322576    47921.445   -13999.975   -168.58752   -583.01189 
    8000           16    299.03224    36.319711    47910.109   -14002.063   -96.693565   -174.97487 
    8100         16.2     296.6529    36.314575    47889.785   -14002.794     359.0767    305.29337 
    8200         16.4    295.44227    36.326947    47938.749   -14001.623   -933.41856   -1026.6829 
    8300         16.6    299.41917    36.311464     47877.48   -14000.549    1135.2659    1099.2622 
    8400         16.8    303.47145    36.330749    47953.804   -13999.533   -1055.1592   -1264.3299 
    8500           17    306.81077    36.314428    47889.204   -14001.851    617.31333    403.22331 
    8600         17.2    297.16836    36.315683    47894.168   -14002.035    307.84663    391.42455 
    8700         17.4    292.37499    36.332801    47961.927   -14000.844   -1579.3306   -1872.8714 
    8800         17.6    303.87252    36.306592    47858.209    -14005.34    1156.3024    1038.4714 
    8900         17.8    302.50345    36.323872    47926.575   -14002.228   -562.05214   -915.95482 
    9000           18    305.12039    36.317496    47901.344   -14000.501    395.74489    213.48634 
    9100         18.2    309.79276    36.321895    47918.752   -14002.594   -366.23367   -466.26356 
    9200         18.4    304.60054    36.315705    47894.259   -14004.376    148.63586   -82.039447 
    9300         18.6    296.95197    36.312268    47880.659   -14002.881    591.16558    281.85577 
    9400         18.8     296.4629    36.328044    47943.093   -14002.382   -1178.7339   -926.43156 
    9500           19    306.41339    36.300386    47833.672   -14004.774    1912.8837    1989.6188 
    9600         19.2    301.07617    36.344617    48008.738   -13998.319   -2560.2226   -3190.7942 
    9700         19.4    303.38144    36.311695    47878.394   -13999.435    1192.6454    1279.5358 
    9800         19.6    301.45542    36.318735    47906.247   -14003.652   -135.98718   -331.42791 
    9900         19.8    295.32369     36.31956    47909.513   -14002.288   -139.96635   -381.60763 
   10000           20    301.19448    36.313662    47886.174   -14004.516    366.18859    160.11656 
Loop time of 20.1519 on 4 procs for 10000 steps with 4000 atoms

Performance: 85.749 ns/day, 0.280 hours/ns, 496.230 timesteps/s
96.0% CPU use with 4 MPI tasks x no OpenMP threads

MPI task timing breakdown:
Section |  min time  |  avg time  |  max time  |%varavg| %total
---------------------------------------------------------------
Pair    | 17.401     | 17.619     | 17.738     |   3.3 | 87.43
Neigh   | 0.2957     | 0.29965    | 0.30648    |   0.8 |  1.49
Comm    | 1.4783     | 1.5932     | 1.8174     |  10.9 |  7.91
Output  | 0.033272   | 0.03494    | 0.039894   |   1.5 |  0.17
Modify  | 0.45959    | 0.46723    | 0.47498    |   0.8 |  2.32
Other   |            | 0.1378     |            |       |  0.68

Nlocal:    1000 ave 1009 max 989 min
Histogram: 1 0 1 0 0 0 0 0 0 2
Nghost:    2901 ave 2912 max 2892 min
Histogram: 2 0 0 0 0 0 0 1 0 1
Neighs:    42993.2 ave 43217 max 42706 min
Histogram: 1 0 0 0 0 1 1 0 0 1

Total # of neighbors = 171973
Ave neighs/atom = 42.9933
Neighbor list builds = 272
Dangerous builds = 0

Total wall time: 0:00:20
