LAMMPS (3 Mar 2020)
units		  metal
atom_style	  atomic
timestep 	  0.002
dimension	  3
boundary	  p p p

read_data Cu_SC_N4000_1int.dat
  orthogonal box = (0 0 0) to (36.15 36.15 36.15)
  2 by 1 by 2 MPI processor grid
  reading atoms ...
  4001 atoms
  read_data CPU = 0.00895572 secs

##Be careful to use eam/alloy type Mishin copper potential with funcfl format

pair_style eam/alloy
pair_coeff * * /home/ldoan/lammps-3Mar20/potentials/Cu_mishin1.eam.alloy Cu
Reading potential file /home/ldoan/lammps-3Mar20/potentials/Cu_mishin1.eam.alloy with DATE: 2007-10-12

neighbor 1.0 bin
neigh_modify every 1 delay 0 check yes

dump atompos all custom 1000 dump.pos.*.dat id type x y z fx fy fz

thermo_style   custom step time temp lx vol pe press pxx
thermo_modify  flush yes
thermo 100

min_style cg
minimize 1.0e-10 1.0e-4 5000 500000
Neighbor list info ...
  update every 1 steps, delay 0 steps, check yes
  max neighbors/atom: 2000, page size: 100000
  master list distance cutoff = 6.50679
  ghost atom cutoff = 6.50679
  binsize = 3.25339, bins = 12 12 12
  1 neighbor lists, perpetual/occasional/extra = 1 0 0
  (1) pair eam/alloy, perpetual
      attributes: half, newton on
      pair build: half/bin/atomonly/newton
      stencil: half/bin/3d/newton
      bin: standard
Per MPI rank memory allocation (min/avg/max) = 5.892 | 5.892 | 5.892 Mbytes
Step Time Temp Lx Volume PotEng Press Pxx 
       0            0            0        36.15    47241.633   -14149.316    1486.8615    1486.8615 
      26        0.052            0        36.15    47241.633   -14161.162    570.46812    570.46812 
Loop time of 0.0831948 on 4 procs for 26 steps with 4001 atoms

89.2% CPU use with 4 MPI tasks x no OpenMP threads

Minimization stats:
  Stopping criterion = energy tolerance
  Energy initial, next-to-last, final = 
        -14149.3162226     -14161.1622815     -14161.1622828
  Force two-norm initial, final = 31.4011 0.00373622
  Force max component initial, final = 12.8192 0.000963243
  Final line search alpha, max atom move = 1 0.000963243
  Iterations, force evaluations = 26 48

MPI task timing breakdown:
Section |  min time  |  avg time  |  max time  |%varavg| %total
---------------------------------------------------------------
Pair    | 0.060557   | 0.067604   | 0.071925   |   1.7 | 81.26
Neigh   | 0.0007925  | 0.0010788  | 0.0014906  |   0.9 |  1.30
Comm    | 0.005173   | 0.0098166  | 0.017051   |   4.7 | 11.80
Output  | 0          | 0          | 0          |   0.0 |  0.00
Modify  | 0          | 0          | 0          |   0.0 |  0.00
Other   |            | 0.004695   |            |       |  5.64

Nlocal:    1000.25 ave 1186 max 851 min
Histogram: 1 0 0 2 0 0 0 0 0 1
Nghost:    2902.75 ave 3052 max 2717 min
Histogram: 1 0 0 0 0 0 2 0 0 1
Neighs:    43029 ave 50872 max 36840 min
Histogram: 1 0 0 2 0 0 0 0 0 1

Total # of neighbors = 172116
Ave neighs/atom = 43.0182
Neighbor list builds = 1
Dangerous builds = 0

Total wall time: 0:00:00
