ITEM: TIMESTEP
4000
ITEM: NUMBER OF ATOMS
4000
ITEM: BOX BOUNDS pp pp pp
-8.0388867114866258e-02 3.6230388867114648e+01
-8.0388867114866258e-02 3.6230388867114648e+01
-8.0388867114866258e-02 3.6230388867114648e+01
ITEM: ATOMS id type x y z vx vy vz 
1157 1 32.6123 10.8708 17.9649 -1.76648 0.987667 -2.88072 
833 1 28.9547 0.00347639 14.3701 2.40644 -1.16448 1.64223 
999 1 34.3509 14.4479 16.3206 -1.9479 -0.101199 0.0677285 
8 1 3.53543 1.78572 1.7223 1.08101 0.815169 0.973761 
47 1 5.38942 3.47958 1.69187 2.89888 -2.65391 0.371558 
206 1 5.42507 1.70895 3.47549 1.94523 -1.02243 -0.365455 
2211 1 9.02073 17.994 5.33193 -0.196042 -1.90159 2.58407 
2801 1 36.2225 18.0632 14.5202 0.504628 0.393296 1.67173 
12 1 7.26967 1.74529 1.66983 -0.613426 -2.0526 -0.944181 
51 1 8.96284 3.58261 1.63981 -0.703208 2.92385 2.36222 
2417 1 14.389 17.9762 7.2165 0.299945 -2.92703 -0.307343 
16 1 10.9137 1.76137 1.74452 1.39062 2.72028 -1.59452 
26 1 23.3657 1.6797 0.0720077 1.27658 -2.12847 -2.26409 
178 1 16.1959 16.2662 -0.132453 -2.401 0.777338 -2.89719 
2813 1 10.8269 17.9535 14.4023 -0.889842 3.18819 2.25591 
20 1 14.5692 1.69377 1.79483 -0.807861 -3.37405 0.686288 
59 1 16.2869 3.5029 1.63993 1.41768 -0.590503 -1.49486 
218 1 16.1809 1.64143 3.52898 -1.50713 0.174167 -0.823142 
1000 1 32.5278 16.0809 16.2965 -2.83244 0.647544 0.150642 
991 1 27.1054 14.4295 16.2739 -0.75962 -3.2274 1.27546 
24 1 18.1257 1.70068 1.60079 -0.0544647 -1.79603 -1.4068 
213 1 10.7146 0.0602723 3.52731 0.954124 -1.18435 2.18207 
261 1 18.0398 3.48076 3.50474 3.18361 -0.47469 3.61434 
222 1 19.8364 1.73507 3.59167 -0.217225 -0.0626414 1.47129 
28 1 21.7287 1.79633 1.74744 -3.07399 -2.58382 -2.53391 
996 1 28.9894 16.286 16.1133 3.29819 -1.03158 2.69305 
2203 1 1.78491 18.1267 5.43079 0.540681 3.02942 1.22164 
32 1 25.416 1.64862 1.80671 -3.10888 1.83131 2.0079 
226 1 23.4045 1.83699 3.54409 1.76013 -1.25846 0.315612 
36 1 29.1221 1.61747 1.76029 -0.259636 -2.12685 1.62723 
71 1 27.1996 3.57334 1.78424 -2.01242 -1.24268 1.93795 
273 1 29.0906 3.54593 3.37245 1.42515 0.974615 -2.05553 
230 1 27.2708 1.62229 3.58191 0.1926 0.180609 -1.97732 
40 1 32.6706 1.6649 1.91067 4.68248 -2.13476 -3.67538 
75 1 30.8861 3.46163 1.65982 1.2415 1.24875 0.165179 
2837 1 32.6701 17.9947 14.5464 2.0161 -2.59593 1.41643 
4 1 36.0821 1.8016 1.7773 4.26172 1.20487 0.935443 
79 1 34.272 3.51475 1.7539 0.131775 1.80341 -1.69835 
73 1 28.9903 3.54124 -0.111893 4.48212 -2.09319 -2.72427 
2835 1 30.7591 18.0576 16.2505 -1.02425 1.40501 -3.19257 
43 1 1.72775 3.48882 1.60773 0.116867 -0.951834 -0.280807 
83 1 1.79473 7.19129 1.75741 0.751406 0.522889 -1.26867 
281 1 36.2768 7.17546 3.45575 2.38636 4.96892 0.140597 
133 1 10.9204 10.8785 -0.0570556 -1.41664 -0.876106 0.430513 
48 1 3.5829 5.38923 1.62785 1.3717 -2.88171 4.13739 
87 1 5.32913 7.27704 1.74206 -0.0591469 5.11029 1.79072 
52 1 7.04824 5.34425 1.77653 2.13525 0.523711 1.13359 
91 1 8.82168 7.16935 1.68676 -0.874167 -3.57399 2.02001 
1174 1 12.625 16.267 17.9719 1.40225 1.33984 -0.0212093 
55 1 12.5871 3.46896 1.8299 -0.364293 0.337764 0.998146 
56 1 10.717 5.36578 1.64151 -1.21736 -0.731769 1.95337 
254 1 12.6277 5.31813 3.48233 2.26471 4.12184 -1.68098 
95 1 12.7967 7.14782 1.74561 2.75243 -0.1439 -1.9049 
631 1 27.0956 -0.104306 12.6839 -0.0738063 -1.93158 -1.17209 
60 1 14.5476 5.20543 1.73915 -5.17529 0.649282 -3.13929 
257 1 14.3525 3.59988 3.58722 1.08412 -1.7241 -2.52259 
258 1 16.2865 5.27235 3.557 -1.73031 2.19908 2.11127 
64 1 18.0455 5.33271 1.64821 -3.09996 1.79689 -0.193424 
63 1 19.9152 3.5996 1.69982 3.67124 1.12179 1.00579 
68 1 21.7806 5.4969 1.72526 -0.188489 2.83281 0.675335 
103 1 19.9386 7.17035 1.76581 1.57918 -0.126442 0.734343 
265 1 21.6682 3.57444 3.6674 3.00576 -2.70748 -2.46884 
67 1 23.4525 3.54499 1.80136 -0.130748 0.837433 -0.503775 
72 1 25.3117 5.38964 1.66095 1.23451 0.00603888 0.654852 
309 1 25.3404 7.15638 3.4605 -0.453507 -0.543106 1.03213 
76 1 29.0289 5.40827 1.8283 2.57189 1.22591 -0.71307 
111 1 27.2443 7.15665 1.81807 -2.23967 -1.75043 0.473592 
270 1 26.9763 5.32764 3.50631 -0.778229 1.47264 0.0911378 
627 1 23.4151 -0.112797 12.5925 -0.751282 -0.726381 -0.981174 
94 1 12.5483 8.96753 -0.0709473 1.33605 4.52041 -2.94588 
2831 1 27.0744 18.0532 16.3403 -3.19189 0.604177 -2.26338 
80 1 32.5534 5.32383 1.69054 -1.09824 1.11479 2.38383 
425 1 21.4798 0.0278986 7.25449 1.94196 -0.168154 1.61508 
274 1 30.8493 5.31839 3.52863 0.533386 2.07835 1.36913 
317 1 32.496 7.09831 3.52916 1.9931 -1.24762 -0.625398 
423 1 19.846 -0.0182652 9.08443 1.55835 -4.24336 0.833935 
44 1 -0.137267 5.31633 1.63256 -3.55017 -1.59384 0.221844 
93 1 10.8108 7.12688 -0.0539562 1.73947 2.95068 -2.82891 
123 1 1.61907 10.8762 1.70822 -1.90155 -2.57935 5.72577 
282 1 1.79901 8.9122 3.44984 1.50892 -0.718041 -0.234332 
84 1 36.1859 8.93706 1.71302 -1.03945 2.81102 -1.5526 
2817 1 14.448 18.0158 14.3246 -1.20424 0.191719 3.00926 
88 1 3.52236 9.08722 1.73047 1.06683 0.196312 -1.75526 
286 1 5.25545 9.03204 3.51293 1.2511 -1.25569 3.0196 
1129 1 7.34435 10.7039 18.0897 1.27214 1.19491 0.418897 
92 1 7.14494 9.16463 1.75058 1.45038 -4.39902 -1.9132 
290 1 9.05954 8.91761 3.47183 -1.41404 0.509247 -1.10641 
2423 1 20.0648 18.0212 9.0161 -1.7291 1.28229 0.385256 
96 1 10.8961 9.02578 1.77471 2.14853 -3.63411 0.810574 
135 1 12.6256 10.8696 1.80669 1.61261 1.25417 0.0341483 
294 1 12.6238 8.99759 3.57122 1.25406 -0.224432 -3.25979 
99 1 16.1834 7.08417 1.78552 0.823371 -2.46181 -2.41045 
297 1 14.4045 7.05088 3.58462 -0.790878 2.91998 0.114572 
100 1 14.362 9.01688 1.68881 -2.23579 1.49615 3.52606 
139 1 16.3251 10.8331 1.7852 -1.51143 -2.23883 0.768732 
337 1 14.5286 10.7205 3.59449 0.246907 4.75348 2.03674 
298 1 16.2612 8.96773 3.58924 -2.38665 -2.64505 -1.40852 
104 1 18.0094 8.9232 1.64156 -2.20504 -1.63625 1.57077 
301 1 18.0761 7.08793 3.50099 -1.93458 -0.991896 -1.51958 
108 1 21.8309 8.92808 1.79967 -1.14069 0.802799 -0.172691 
302 1 19.8994 9.06599 3.54743 1.10361 -1.72241 -0.928033 
305 1 21.6974 7.26386 3.59999 2.84476 -1.96064 0.271976 
1166 1 5.30684 16.1862 17.9569 -3.06906 -1.39488 -2.49637 
2019 1 16.2254 17.9973 1.72214 1.46973 -0.554255 -2.4701 
107 1 23.5461 7.26653 1.6891 1.5471 -0.0216889 1.16973 
112 1 25.3523 9.03673 1.82085 2.01486 -0.74737 -4.07578 
147 1 23.6241 10.8337 1.65063 -1.83716 1.54086 -2.48265 
70 1 27.091 5.34313 -0.0309213 2.46458 2.763 -0.00628392 
2427 1 23.5142 18.0283 8.9524 -2.20032 0.371867 -1.21641 
313 1 29.0472 7.28101 3.4688 -0.891833 0.473991 2.57867 
116 1 29.0445 8.88278 1.76717 -0.532941 -1.43572 -1.34033 
310 1 27.2135 9.04174 3.6042 0.132951 -1.57716 -0.449718 
229 1 25.2631 0.0132833 3.62326 4.38127 2.25413 0.331791 
115 1 30.7959 7.07237 1.63556 -0.726537 -2.63396 -3.72803 
120 1 32.5833 9.0517 1.71869 -1.12612 0.596858 -1.45681 
314 1 30.846 9.06589 3.62638 3.24031 -2.03219 -1.57788 
119 1 34.315 7.22931 1.70781 -3.03009 3.45272 -1.93333 
417 1 14.3222 -0.088814 7.20024 0.224506 -2.48107 -3.33384 
86 1 5.22441 9.12666 -0.108246 2.20207 -0.587112 -0.428688 
124 1 36.2216 12.6357 1.75065 -0.223695 -0.836022 -2.82515 
163 1 1.62721 14.267 1.67689 1.69421 1.61885 2.388 
322 1 1.66 12.6811 3.56391 5.17405 -0.533055 -1.39988 
127 1 5.46055 10.7877 1.69323 0.66134 0.831464 0.337648 
325 1 3.51753 10.8899 3.49769 1.08794 0.725383 -1.83366 
128 1 3.57788 12.6566 1.80853 -0.828082 2.93135 1.40003 
167 1 5.34743 14.3414 1.67004 -2.2338 1.87975 -1.60361 
131 1 8.8878 10.824 1.79439 -1.27133 2.72687 -0.245356 
132 1 7.09733 12.5463 1.84097 -0.270365 0.921596 -0.609941 
330 1 9.01318 12.6175 3.58686 -0.161972 -0.549633 2.96128 
333 1 10.954 10.8557 3.57311 -0.535815 1.05512 0.575259 
136 1 10.8246 12.5864 1.91126 -0.211824 -1.49613 0.190449 
175 1 12.6207 14.3814 1.70091 -1.84983 -0.104353 -0.50307 
373 1 10.8064 14.5254 3.42743 2.34657 -1.01932 -1.97399 
407 1 5.26431 -0.069313 8.82228 -0.790106 0.202427 -2.26652 
140 1 14.5071 12.6432 1.76567 -1.58572 1.13454 -1.38544 
338 1 16.3121 12.7654 3.55451 1.01824 1.09073 -0.994349 
179 1 16.2804 14.5246 1.70901 0.884201 -1.46691 -1.112 
227 1 23.5652 0.0733931 5.40758 -1.37997 -1.03879 1.47004 
144 1 18.0911 12.6325 1.75981 -0.755525 -2.36301 1.60186 
381 1 18.194 14.461 3.47062 -1.07532 2.28343 1.11466 
2413 1 10.7695 18.1049 7.15199 2.60241 3.23788 -2.23909 
143 1 19.8596 10.8692 1.65258 2.41815 -0.631442 -0.289285 
148 1 21.7238 12.569 1.79289 0.675722 -2.20107 0.164644 
183 1 19.9037 14.4746 1.70582 1.56764 0.558584 1.84942 
385 1 21.75 14.432 3.57835 -1.14696 -4.39942 -1.1161 
2415 1 12.5164 18.0605 9.07718 -1.65516 0.64197 3.3363 
152 1 25.3727 12.5607 1.62212 0.347217 -1.4984 -1.06446 
187 1 23.4327 14.3211 1.64718 2.71785 -1.34108 1.14803 
346 1 23.4762 12.5723 3.57775 -4.67376 1.751 -1.35832 
633 1 28.9606 0.0636824 10.8211 -1.2547 -0.382454 -0.594002 
353 1 28.9818 10.762 3.57656 -1.93885 -2.50061 -0.938196 
151 1 27.2812 10.7071 1.67061 -0.686654 -1.4572 -2.60927 
156 1 28.8553 12.5328 1.69936 -0.797111 -2.11115 1.61695 
350 1 27.1486 12.5713 3.42141 -0.27421 3.97638 -5.37055 
155 1 30.7713 10.8047 1.73575 -2.97777 -0.219416 -1.50763 
160 1 32.6306 12.6168 1.72371 0.884195 0.417076 -0.838815 
357 1 32.5807 10.8284 3.66316 -1.94805 0.47361 -0.551608 
159 1 34.3672 10.866 1.81959 3.27692 3.31613 1.01876 
199 1 34.3992 14.5306 1.83959 2.49034 0.319292 3.63986 
358 1 34.4137 12.6606 3.59279 0.415349 -3.01429 2.52741 
419 1 16.2868 -0.0766288 9.03668 -1.02471 -0.454241 1.37807 
164 1 36.1738 16.3627 1.80344 -0.620181 3.27731 0.697631 
429 1 25.2401 0.0951005 7.23027 -1.90024 0.106679 3.47075 
168 1 3.47076 16.1456 1.66403 2.03047 2.85253 1.79961 
366 1 5.35569 16.3364 3.489 -1.00884 2.23159 -1.26242 
365 1 3.50638 14.3879 3.52312 -2.30569 -0.631836 1.79476 
986 1 23.4425 16.1342 14.3818 -0.0872127 -1.15331 -0.21727 
171 1 8.87294 14.4526 1.79159 1.27583 -2.00707 3.60743 
992 1 25.3016 16.2291 16.3094 0.402085 -0.434581 -0.436773 
172 1 7.19036 16.2605 1.71587 1.58531 -1.24154 -0.637954 
369 1 7.15143 14.4377 3.48823 -2.73453 -1.3132 -1.41113 
370 1 9.00404 16.2156 3.66518 -0.761746 -1.50436 1.78751 
150 1 27.1145 12.6292 -0.0159954 2.98909 -3.40193 -3.20464 
176 1 10.681 16.2937 1.78695 -0.0405423 1.08416 -1.73455 
374 1 12.6786 16.2233 3.62894 0.522308 -1.7257 -2.39548 
180 1 14.3737 16.2206 1.78784 -0.649439 -1.02007 -1.18696 
377 1 14.385 14.4634 3.53122 -0.913874 -2.59912 -3.20896 
102 1 19.9166 8.99814 -0.00516552 2.46562 1.14927 0.54769 
378 1 16.3117 16.3318 3.58991 2.09276 -1.52636 -1.22477 
982 1 19.8427 16.201 14.5036 -2.2689 0.343121 1.3348 
184 1 18.0326 16.2477 1.74391 -2.32111 -0.423127 -1.48335 
188 1 21.5391 16.4163 1.88699 0.482999 -1.39327 -1.53701 
382 1 19.8401 16.2204 3.58513 -1.96726 -0.437039 0.328941 
185 1 21.6828 14.4265 -0.0647275 -1.23268 2.39418 -3.8079 
819 1 16.3814 -0.024063 16.3458 -0.607301 1.40606 2.97819 
389 1 25.3149 14.415 3.44388 -1.88607 -0.0972524 2.81842 
192 1 25.4535 16.2792 1.82695 0.0518678 -3.34129 -0.464148 
386 1 23.6101 16.2125 3.51896 1.33261 0.807901 0.586394 
191 1 27.2154 14.4531 1.86051 -1.76359 -1.31587 3.4794 
196 1 28.8221 16.4682 1.5694 -2.95721 -0.627423 -0.287763 
390 1 27.2645 16.4197 3.57368 0.862317 4.78953 -1.55745 
1125 1 3.45998 10.7237 18.0329 -8.85819 2.90327 5.00875 
2827 1 23.4577 17.9393 16.1266 1.65248 1.14263 -2.61203 
195 1 30.7551 14.4875 1.67363 0.964771 -0.242072 2.08693 
200 1 32.5417 16.3385 1.7666 -1.04455 -0.651905 1.01837 
2609 1 7.21909 18.1043 10.7234 0.510213 2.80989 0.00319146 
1066 1 23.3249 5.33271 17.9821 -1.36519 1.66051 1.53883 
398 1 34.4239 16.4155 3.58733 1.50831 3.25133 -1.02092 
1090 1 9.04851 8.99884 18.0492 0.421952 2.47971 -0.817957 
202 1 1.74733 1.68153 3.60725 -1.04873 0.739683 1.32894 
2825 1 21.6764 18.0148 14.4506 -3.72619 0.39597 -1.54177 
204 1 -0.0975246 1.83252 5.27784 -2.37421 0.775919 -0.849671 
402 1 1.80188 1.64472 7.0998 1.37801 -2.77357 0.0567775 
245 1 3.44854 3.43952 3.54346 1.56677 0.789893 2.03063 
208 1 3.58572 1.79764 5.41214 2.4607 0.439703 1.04253 
406 1 5.39307 1.80178 7.29592 -3.64007 -2.12492 -0.165448 
247 1 5.34948 3.44841 5.339 -3.66146 0.904176 -1.81132 
988 1 21.6849 16.2275 16.3448 1.96452 0.643679 -2.15898 
210 1 9.00965 1.77378 3.43521 -2.48168 -2.39322 -0.263134 
249 1 7.1341 3.60023 3.59431 -1.17405 3.97811 -2.54946 
984 1 18.0799 16.2985 16.4216 0.949138 -0.488595 2.99816 
212 1 7.16236 1.64899 5.27419 -3.76585 -3.37589 -2.27605 
253 1 10.5734 3.59875 3.55236 -0.707133 -2.03855 -1.33556 
130 1 9.06862 12.6379 -0.0688823 1.51053 -0.795125 -1.47366 
214 1 12.5871 1.84784 3.66901 5.55875 0.909358 4.38975 
216 1 10.7253 1.70428 5.36548 0.0325135 1.69985 2.42734 
453 1 10.8825 3.76005 7.22486 1.65327 1.18714 -1.21804 
414 1 12.6175 1.77445 7.13919 -1.78336 -1.65716 -2.90751 
2639 1 34.4133 18.0306 12.5992 -0.123989 -0.369778 -1.43755 
821 1 18.1521 -0.0185977 14.4921 2.07629 -4.57755 1.48605 
220 1 14.4613 1.80171 5.39775 1.47181 1.36841 -0.0448762 
418 1 16.3375 1.7572 7.28579 2.62076 1.00088 2.24828 
457 1 14.5109 3.54953 7.16353 2.22243 -3.53053 1.71034 
224 1 18.0807 1.71513 5.26912 -2.0672 -1.02377 3.78686 
811 1 8.91312 -0.0724257 16.1612 0.128067 -1.54785 2.23713 
228 1 21.6066 1.7264 5.30443 0.699998 0.550034 1.65253 
422 1 19.7792 1.82542 7.21906 -0.837302 -1.66019 0.0735357 
201 1 -0.0522098 0.00980033 3.71127 0.461141 -2.6636 0.774389 
2205 1 3.50382 18.0899 3.58781 -1.86326 0.803865 0.2121 
2003 1 1.72482 18.0641 1.79706 1.73927 -0.205529 -2.12253 
232 1 25.3502 1.74512 5.28781 -3.48404 1.46173 -1.46285 
426 1 23.245 1.83383 7.12725 -1.68796 2.02755 0.49942 
978 1 16.2526 16.32 14.4258 -0.228914 -2.75671 -1.77422 
236 1 29.0589 1.79321 5.32383 -0.661848 -1.73851 2.43797 
271 1 27.2112 3.51472 5.24969 1.87111 3.55768 -2.6069 
430 1 27.2714 1.8262 7.12577 -0.180289 -0.754343 2.59837 
473 1 29.2342 3.53425 7.10116 -0.475575 -2.02887 -2.51682 
234 1 30.8533 1.61136 3.56935 1.87744 -0.462716 -3.35104 
277 1 32.4775 3.55456 3.57917 -2.53674 0.881084 2.15801 
240 1 32.5533 1.77165 5.29403 -1.30999 -1.50839 -1.0475 
275 1 30.9039 3.69122 5.41586 -4.40224 2.45138 0.193945 
238 1 34.3682 1.64687 3.7241 -2.7939 1.77616 -0.215587 
980 1 14.4056 16.3087 16.2263 -0.262447 1.08513 1.20294 
242 1 1.8042 5.30353 3.42197 -0.900993 0.00363507 2.15433 
243 1 1.68704 3.51806 5.4192 0.696916 1.02854 -0.314289 
246 1 5.33425 5.31847 3.51977 -1.52746 2.12366 1.69461 
285 1 3.63487 7.17724 3.51939 1.5343 0.197862 -2.83625 
248 1 3.57813 5.13574 5.3723 -0.146922 3.1672 4.13358 
287 1 5.26262 7.0849 5.27723 -0.0934675 -0.778747 3.16017 
485 1 3.58635 7.07913 7.19182 0.690156 1.762 -3.02492 
446 1 5.35925 5.35699 7.13308 2.69996 -0.274451 -0.512714 
250 1 8.886 5.37429 3.3985 -3.41249 2.63054 1.03728 
251 1 9.00931 3.62864 5.32343 3.75508 1.05635 1.90156 
252 1 7.17388 5.52143 5.23355 1.35446 -1.23038 1.13804 
450 1 9.05213 5.41914 7.03728 0.234668 0.38166 1.09139 
291 1 8.97634 7.26638 5.30036 0.432792 1.49086 2.08476 
289 1 7.04897 7.30822 3.48002 -0.800868 1.46348 -0.48639 
255 1 12.5814 3.60037 5.38203 3.39936 1.958 -0.0379166 
256 1 10.8002 5.49941 5.23957 0.0550552 2.1667 -0.218537 
259 1 16.2803 3.51941 5.2601 -0.702244 -1.49621 -1.23857 
260 1 14.4362 5.41158 5.44031 2.04596 5.52977 1.5915 
299 1 16.2596 7.09716 5.31318 -0.994201 -0.574899 4.14619 
458 1 16.3314 5.43545 7.1134 1.64923 -3.09456 -0.360023 
264 1 18.1741 5.31223 5.28399 -1.098 -0.550423 1.54267 
461 1 17.9644 3.588 7.17029 -0.348484 1.15791 -0.922718 
262 1 19.9289 5.3804 3.63734 -1.64993 0.934913 -2.66745 
263 1 19.8405 3.50334 5.34625 -0.949371 -6.06011 -2.00136 
268 1 21.6263 5.48675 5.36357 -1.27041 -0.198937 -5.31255 
462 1 19.8125 5.46241 7.05605 0.238045 -3.25243 -0.624915 
465 1 21.6366 3.71573 7.11511 -0.505401 -1.06027 -1.75649 
269 1 25.2973 3.53902 3.55807 0.820932 -1.05261 1.93031 
266 1 23.5106 5.32446 3.52748 2.10524 1.72457 -0.657247 
267 1 23.4751 3.73751 5.384 -1.18522 -0.626783 1.07464 
272 1 25.2963 5.34679 5.41316 0.577816 -1.33268 2.22693 
307 1 23.4995 7.1641 5.25479 -2.66681 0.334261 -0.773005 
276 1 28.9444 5.324 5.13126 -0.0906402 -0.852378 -2.43834 
311 1 27.0906 7.09053 5.28035 0.511434 -1.70346 2.30568 
470 1 27.1797 5.30899 7.11343 1.19814 0.713448 -1.7048 
280 1 32.6753 5.31864 5.37691 1.02143 1.79085 -1.45161 
315 1 30.7257 6.9878 5.35663 -0.255614 0.230441 -0.991327 
517 1 32.5785 7.14807 7.13329 0.775547 2.05808 0.814135 
474 1 30.8452 5.33045 7.23202 -0.541661 -0.455047 1.91639 
241 1 36.1607 3.55339 3.54537 -2.43864 -0.440079 -0.12285 
244 1 0.0316125 5.42771 5.28709 1.20268 -0.092426 0.173395 
278 1 34.4723 5.38747 3.39442 1.87785 1.60782 4.38567 
279 1 34.4112 3.71409 5.30333 -2.51329 -2.15429 -0.0361019 
321 1 -0.027899 10.7942 3.492 -1.17073 -0.0382996 1.45033 
283 1 1.76835 7.23544 5.39426 1.66374 -0.553635 0.163978 
284 1 36.1609 8.97352 5.28938 2.16339 -1.93596 -1.36891 
323 1 1.66657 10.794 5.41007 1.238 -0.651039 -2.87957 
288 1 3.37206 8.97061 5.34392 1.50799 2.13697 0.228361 
327 1 5.28378 10.8031 5.48046 -0.197499 0.478836 -0.168466 
292 1 7.05747 9.04743 5.34449 -2.21182 -0.0504591 -0.299863 
329 1 7.12513 10.8203 3.76638 0.788257 -1.65558 -0.155078 
331 1 8.9175 10.7221 5.27885 -0.66222 -1.46615 -2.00342 
490 1 8.92463 9.0729 7.01006 -1.88063 3.09872 0.834868 
293 1 10.8616 7.26991 3.32756 0.111805 -1.98955 -0.26885 
295 1 12.5658 7.26232 5.22052 3.21164 -2.45964 -1.34355 
296 1 10.7516 8.9928 5.23926 1.48294 -1.03119 1.08355 
335 1 12.5188 10.7978 5.4297 -1.24985 -1.61985 1.25185 
494 1 12.5267 8.97868 7.07024 0.000344503 -0.973576 -0.987533 
493 1 10.8282 7.21503 7.07821 1.05408 0.900703 0.912306 
497 1 14.4038 7.21327 7.13475 1.28747 1.46835 2.66357 
300 1 14.5113 9.06794 5.38123 -2.22336 2.30808 2.83001 
498 1 16.2598 8.99524 7.15727 -0.0858683 -1.7758 -4.18171 
339 1 16.3436 10.8679 5.38808 -1.49798 -0.813172 -0.722609 
537 1 14.4002 10.8354 7.20365 -1.23065 1.01206 -0.340829 
341 1 17.8802 10.8882 3.61267 -2.58086 3.04848 -0.372214 
304 1 18.181 9.09226 5.38625 -2.99584 0.784634 1.00316 
501 1 18.1416 7.28618 7.14009 -0.228621 -1.77403 4.06105 
541 1 18.0038 10.9401 7.09498 -0.786755 2.83313 2.47326 
303 1 19.8754 7.21885 5.2929 2.16367 -1.62868 4.49475 
308 1 21.657 9.09946 5.36932 -2.80274 0.509639 -0.634182 
343 1 19.8876 11.0393 5.40379 -1.81572 -0.161569 -4.95017 
306 1 23.459 9.05923 3.63459 0.282953 1.62302 0.824124 
312 1 25.3258 8.98939 5.40168 -0.138367 -0.840918 1.45899 
347 1 23.5266 10.7665 5.51629 2.3863 0.572722 1.14766 
316 1 29.0493 9.00482 5.17957 0.0630342 -1.6331 1.16856 
510 1 27.1854 8.93888 7.26231 3.13191 -0.423895 -0.581101 
553 1 28.8061 10.6818 7.10469 0.220751 -4.88024 2.78099 
320 1 32.5234 8.93663 5.33999 -1.85434 -2.73381 -2.28057 
514 1 30.7766 8.97888 7.14582 0.174657 -0.602995 -0.837249 
557 1 32.5248 10.7898 7.16332 0.0812191 0.164634 -1.87367 
318 1 34.4762 8.98277 3.66948 0.785302 -1.21681 3.31575 
319 1 34.4825 6.92383 5.29363 0.101742 1.14488 -1.47067 
359 1 34.3645 10.8965 5.39985 -2.5197 1.23739 -0.833378 
481 1 -0.0883059 7.18116 7.13758 0.0729378 1.43567 1.11512 
518 1 34.326 8.79233 6.93569 -1.7845 -0.0749636 -2.88262 
521 1 36.0949 10.6601 7.1259 0.63053 -0.286548 1.13611 
361 1 36.0831 14.4689 3.6048 0.36762 -0.470909 2.49277 
363 1 1.71906 14.4298 5.40737 1.95577 3.69852 1.85252 
324 1 36.2434 12.7288 5.49722 3.09073 -0.88548 1.36498 
326 1 5.2788 12.6475 3.56038 -1.79258 -0.608948 0.619221 
328 1 3.54822 12.7221 5.27371 1.28013 1.21933 0.746948 
367 1 5.43367 14.4903 5.35996 2.45519 3.1929 -0.973544 
332 1 7.20184 12.5969 5.35628 -1.67207 3.64808 -0.294682 
530 1 8.95378 12.6076 7.15857 -0.975112 0.527169 2.63433 
334 1 12.6909 12.6873 3.64691 4.2365 -1.92298 0.624442 
336 1 10.6834 12.4888 5.32299 1.29886 -0.481205 0.676838 
534 1 12.5392 12.8184 7.1185 4.23902 -4.49608 0.430475 
573 1 10.7949 14.5405 7.13902 0.617131 -1.58026 1.46584 
375 1 12.5981 14.3908 5.44967 -0.245898 -5.16371 1.41079 
340 1 14.4383 12.5596 5.4023 3.02053 2.39116 2.67891 
538 1 16.2726 12.6484 7.19673 -4.21402 2.40681 -1.52361 
344 1 18.0615 12.6862 5.31058 3.12617 0.289746 2.37243 
345 1 21.7103 10.8215 3.57179 0.901731 4.59124 1.83134 
342 1 19.7805 12.5927 3.4617 1.70102 -2.30109 -1.28073 
348 1 21.7678 12.6736 5.42109 1.10143 -2.15874 5.53973 
545 1 21.8707 10.7898 7.27823 -0.723253 2.29473 -4.9035 
542 1 19.8104 12.5885 7.18092 -0.717789 0.468063 -3.58144 
349 1 25.3438 10.8336 3.52682 -0.0232775 -3.39265 1.58829 
352 1 25.439 12.6995 5.33322 -0.0209067 0.958658 -0.677944 
549 1 25.2811 10.8199 7.23746 0.586093 -1.95205 0.018709 
351 1 27.066 10.7874 5.46654 0.24076 -3.37344 1.48076 
356 1 28.9798 12.7191 5.36223 0.899257 0.648176 -2.39183 
550 1 27.1489 12.5437 7.14996 1.27002 -0.558318 0.911045 
355 1 30.7551 10.9647 5.31871 -1.97094 -3.18926 0.790036 
354 1 30.8105 12.6114 3.41529 0.514475 2.97359 -1.05663 
360 1 32.5406 12.6474 5.53979 1.50686 -4.37698 -0.641995 
554 1 30.7642 12.51 7.27533 0.874876 0.451563 -0.320252 
597 1 32.527 14.3114 7.24367 0.228438 -2.7007 3.1014 
399 1 34.3324 14.5256 5.36312 0.675149 2.65328 -0.206019 
558 1 34.435 12.6206 7.09938 2.35237 0.181217 -1.79112 
362 1 1.84283 16.2268 3.52567 1.22039 -0.304287 -1.66371 
562 1 1.77454 16.3493 7.0934 1.31108 0.931031 -0.762346 
413 1 10.7196 -0.0475635 7.18233 -0.335218 -0.667596 1.69192 
225 1 21.6743 -0.0153278 3.49311 0.647757 0.807357 2.72746 
368 1 3.73087 16.288 5.35274 -3.53164 -1.56447 -3.87075 
976 1 10.8234 16.1066 16.2873 3.89784 -3.08382 -2.69244 
371 1 8.94255 14.3847 5.40334 0.672573 -0.266973 3.1052 
372 1 7.18824 16.328 5.34241 0.460826 -0.319583 1.48984 
974 1 12.5871 16.2123 14.4069 -1.1293 -0.653414 2.46744 
376 1 10.9334 16.2491 5.27497 2.42021 0.562142 1.88737 
2839 1 34.426 18.0322 16.2323 -1.1473 -1.12647 0.822353 
1169 1 7.09558 14.4891 18.0084 -0.012614 -1.16956 2.28073 
972 1 7.14934 16.2764 16.1678 1.05689 4.94432 -2.21436 
189 1 25.3442 14.4834 -0.0320222 -0.420964 0.739671 -3.97957 
7 1 5.31507 -0.0464779 1.62508 1.3933 0.358736 3.90371 
379 1 16.2503 14.4818 5.29102 -2.89967 3.25055 -0.376205 
380 1 14.5206 16.1602 5.37959 2.04771 0.830666 -1.101 
1001 1 -0.0298551 -0.007921 18.0249 -1.93549 -3.93008 3.25674 
384 1 18.0587 16.1964 5.35231 1.83802 2.7677 0.702522 
141 1 18.0309 10.8982 -0.0402416 -3.22449 -0.604033 -1.3642 
585 1 21.73 14.4355 7.22641 -0.711781 -0.636847 1.81467 
383 1 19.9722 14.2882 5.36877 0.0292034 0.8596 1.29254 
388 1 21.8541 16.2727 5.45466 4.34313 -0.556328 3.2717 
582 1 19.8631 16.1821 7.15355 -0.741533 1.15604 0.257333 
589 1 25.473 14.4162 7.17002 -3.13758 0.347426 -1.2757 
387 1 23.6221 14.3679 5.36402 -1.05463 3.12352 4.11985 
392 1 25.4777 16.2022 5.22613 2.3422 -3.07391 -1.83444 
393 1 29.0756 14.3635 3.43972 -2.93599 3.15677 1.09394 
391 1 27.2651 14.5155 5.33135 2.3507 1.42575 -0.247288 
396 1 29.0235 16.3019 5.46287 -0.953225 2.47208 0.0439568 
590 1 27.1879 16.2638 7.19434 2.05822 -0.00807952 1.37324 
629 1 25.2824 0.0451976 10.8904 -2.39608 0.150163 0.50421 
397 1 32.6646 14.4873 3.53033 -3.19728 -0.597281 -3.06176 
394 1 30.7778 16.2281 3.58445 -1.75127 -1.86968 1.50647 
395 1 30.7273 14.4324 5.32624 3.20808 2.08001 -3.38538 
400 1 32.5891 16.2795 5.48309 0.499513 -1.60887 4.73267 
364 1 -0.0609003 16.3002 5.22513 -0.24121 1.94756 2.42023 
968 1 3.50078 16.3197 16.2363 0.659441 -1.9271 1.0496 
441 1 36.0997 3.55308 7.15175 -1.17069 2.15314 2.87372 
404 1 36.1919 1.72999 8.87708 0.378171 -1.3294 0.326932 
602 1 1.57024 1.65654 10.8485 0.728873 -0.0148272 -3.19146 
443 1 1.56925 3.62108 8.95602 -1.66076 2.19864 -0.550509 
966 1 5.44005 16.253 14.3479 -2.1888 1.99023 0.0990293 
408 1 3.38917 1.60076 9.11974 -0.609637 0.222196 -2.27131 
606 1 5.32127 1.71906 10.6983 -0.34423 -0.16749 0.589324 
645 1 3.46143 3.44938 10.8491 4.03578 1.63228 -0.265063 
447 1 5.51718 3.55027 8.93712 -0.356978 -2.07823 -1.15592 
1138 1 16.3242 12.5324 18.0639 -0.736095 0.129066 0.467052 
449 1 7.21399 3.60086 7.08277 -0.471628 -2.55457 5.61834 
410 1 8.99642 1.68487 7.11347 -0.730185 -2.78745 0.58325 
412 1 7.19997 1.69346 8.90528 1.34746 3.8676 -2.93929 
451 1 8.99737 3.67516 8.87979 -1.25791 2.75197 -1.11647 
610 1 9.10791 1.81466 10.6485 -3.79738 -0.559765 2.76189 
1177 1 14.4048 14.3098 18.0589 -3.087 -1.08164 0.404043 
416 1 10.8414 1.89629 8.8683 0.687951 -2.09175 -4.69453 
653 1 10.8328 3.74812 10.707 0.859683 -0.143771 1.12258 
1010 1 8.94243 1.86939 18.019 1.12042 0.800121 2.75819 
420 1 14.5136 1.69729 9.02291 1.6285 1.26007 3.57394 
459 1 16.3461 3.62678 9.00368 1.19296 -5.09188 1.44607 
618 1 16.1398 1.73617 10.9355 -0.927748 -3.86128 2.63612 
1085 1 3.45842 7.10452 18.0057 -1.15547 -0.255007 3.8223 
424 1 18.0685 1.73908 9.09819 -0.489683 -0.067828 0.182878 
2231 1 27.1871 18.0792 5.29102 -0.0161062 2.22272 1.05075 
149 1 25.4266 10.7305 -0.0538394 0.0795453 -0.245158 -0.434203 
428 1 21.5805 1.83996 9.01248 -1.26292 -2.49242 -1.10686 
622 1 19.7795 1.87537 10.9004 -2.14493 4.15821 -6.46784 
964 1 -0.133593 16.1831 16.3215 -3.67347 -0.229571 -4.95717 
1078 1 34.5086 5.19372 18.0161 1.73758 -2.47438 4.10853 
469 1 25.2575 3.60264 7.16657 1.59748 0.405355 -1.96886 
432 1 25.396 1.71605 9.05192 -1.0885 -2.83585 2.76358 
669 1 25.211 3.4679 10.8349 -2.11066 0.184984 -1.87304 
959 1 34.4613 10.771 16.2674 -1.15843 -2.11505 -1.95008 
436 1 28.9862 1.83141 8.8993 0.608414 -2.25086 3.15731 
471 1 27.1041 3.50594 9.03813 0.15022 -2.28138 -0.783379 
630 1 27.2082 1.73715 10.9419 -2.26476 -1.99244 -1.68986 
434 1 30.8746 1.7553 7.20066 1.22921 0.251701 -0.390508 
440 1 32.5203 1.64265 9.16423 0.843418 0.45034 1.22504 
634 1 30.7535 1.69282 10.8847 1.63178 2.48056 -0.111617 
1181 1 17.9674 14.4146 18.0797 1.87659 1.00591 0.647866 
438 1 34.3234 1.73007 7.05986 1.02974 1.47539 -0.499106 
479 1 34.3064 3.52703 8.96257 -1.4747 1.15208 0.570337 
813 1 10.7848 -0.0572544 14.4033 1.51268 1.05879 -1.60925 
442 1 1.75157 5.36253 7.22964 1.82208 -1.03641 -0.433427 
483 1 1.8585 7.23767 9.13014 -0.186131 -3.46443 0.0994331 
642 1 1.53367 5.21373 11.017 2.63452 -4.5343 -2.05925 
445 1 3.41559 3.54339 7.22683 0.484303 -0.890054 3.28329 
448 1 3.46647 5.24441 9.12771 0.294701 1.51119 1.83104 
646 1 5.27548 5.38004 10.791 0.624502 -0.636296 2.52109 
487 1 5.32701 7.20102 8.97202 0.0773648 -4.9048 0.509755 
452 1 7.18142 5.35872 8.87556 1.63518 -0.521873 -3.0628 
489 1 7.07815 7.19105 7.086 1.92125 -0.290081 0.890914 
454 1 12.6029 5.3909 7.19028 -0.969907 -3.91711 -1.0835 
455 1 12.6705 3.54681 9.10581 0.165585 -1.39322 -2.01653 
456 1 10.9843 5.44416 8.96001 -3.40194 1.79411 1.80575 
654 1 12.7038 5.38475 10.6868 -2.53396 -1.94491 -3.90565 
495 1 12.74 7.23522 8.94935 2.31143 3.06242 -0.435494 
460 1 14.4542 5.40389 8.91682 2.32204 -2.60995 1.05379 
657 1 14.4352 3.58026 10.8067 -0.424581 -2.58274 3.74035 
464 1 18.0362 5.3629 8.85485 0.292667 0.524266 -1.16711 
661 1 17.9394 3.6013 10.8774 -0.0987732 -2.3591 0.784737 
463 1 19.8434 3.67037 9.00875 -2.02474 0.0711632 -2.23162 
665 1 21.6614 3.59565 10.7845 0.393118 0.705837 -0.22997 
468 1 21.6252 5.60531 8.89886 1.9327 -0.434248 2.12546 
505 1 21.6161 7.28242 7.04614 1.62208 2.2707 4.40165 
466 1 23.4666 5.46526 7.30759 1.4108 -0.194226 -2.20622 
467 1 23.4614 3.54864 8.85067 1.03364 -3.84986 -1.70535 
472 1 25.3442 5.38494 8.96476 1.45716 0.399891 0.162115 
507 1 23.4211 7.21739 9.04019 0.596069 -1.27741 -0.125268 
666 1 23.3012 5.3287 10.6834 1.35656 -2.58682 -3.03998 
513 1 28.9601 7.1931 7.04304 -1.69703 1.73365 -0.694205 
476 1 29.0179 5.42658 8.89914 0.0372194 -2.2913 4.64825 
673 1 28.9176 3.56208 10.7932 -0.141671 -2.377 -0.911501 
670 1 27.0666 5.3107 10.8459 -0.433951 -0.192434 -2.5517 
477 1 32.6207 3.57601 7.23815 3.73053 0.738882 1.34429 
475 1 30.8341 3.55358 8.97222 0.15839 -0.87304 0.603195 
480 1 32.6045 5.34983 9.09773 2.90518 -0.740907 0.722239 
515 1 30.8392 7.16366 8.98047 -0.484785 3.49023 -0.195475 
677 1 32.5395 3.49252 10.9121 2.24499 1.94222 1.25836 
478 1 34.5407 5.47018 7.23034 -2.79982 -1.36798 -1.74633 
444 1 36.034 5.3173 9.06042 -2.08441 0.00805959 -1.66766 
678 1 34.4304 5.30716 10.8531 -1.11606 2.7799 1.27399 
482 1 1.78629 9.07368 7.20046 -0.0470394 -0.172508 0.0373106 
682 1 1.74643 8.83634 10.7863 3.18717 -0.184715 -2.93257 
523 1 1.68324 10.9437 9.0692 1.29016 1.47322 -2.92106 
486 1 5.35934 8.96448 7.11523 1.63635 0.44575 1.04706 
685 1 3.64584 7.24085 10.8764 3.88222 0.730495 2.53924 
488 1 3.51697 9.15186 9.02193 -3.43394 0.691014 4.06363 
491 1 9.01347 7.17161 8.88418 -3.17247 1.0869 2.24758 
492 1 7.16128 8.94037 9.02862 0.376372 -3.8631 -0.695559 
690 1 9.03621 9.14871 10.7629 1.39147 -1.70938 1.34665 
533 1 10.6884 10.7216 7.1583 1.08759 -1.62399 -3.77144 
496 1 10.8858 9.03477 8.88851 -3.71676 0.0404014 -0.556516 
733 1 11.0064 10.9322 10.8585 0.0746863 3.07436 -1.37818 
694 1 12.6775 9.03583 10.7007 1.76607 0.413013 -3.40615 
499 1 16.2987 7.18345 8.98005 -3.13643 1.23305 3.5983 
500 1 14.5032 9.04697 8.92797 -1.62053 -2.35471 -1.71886 
737 1 14.5917 10.8933 10.7923 -1.7557 -1.88907 -2.39157 
697 1 14.469 7.16792 10.7147 -2.24421 0.148006 -1.1308 
504 1 17.9873 9.15973 8.97651 -0.506608 -4.28234 0.279431 
705 1 21.614 7.33232 10.8203 -1.80768 1.02784 0.69873 
502 1 19.8626 9.2779 7.17174 1.4045 -4.73707 -0.684292 
503 1 19.7858 7.28179 8.91226 5.00426 0.38783 0.158263 
508 1 21.7491 8.96836 8.94031 0.203132 -0.921645 0.0612597 
543 1 19.8693 10.8168 9.03998 1.88212 -1.90843 -1.39306 
702 1 19.9004 9.09209 10.6525 -0.275243 -1.65855 -1.69222 
509 1 25.3761 7.10099 7.16196 1.64866 0.694871 1.31751 
506 1 23.5562 8.80172 7.28836 -0.430749 -0.468959 -0.211966 
512 1 25.4607 8.89212 9.13093 1.45832 -4.06249 1.72766 
547 1 23.6906 10.7413 9.03475 -1.40772 -0.112561 -3.14464 
749 1 25.3233 10.8852 10.83 2.77334 0.143717 -2.53516 
706 1 23.5481 8.9853 10.8158 0.191819 2.89172 0.323778 
511 1 27.2707 7.15794 9.05373 -2.28508 0.105335 1.84088 
516 1 28.9584 8.87406 8.99307 -1.37968 -3.50167 -3.10946 
551 1 27.1779 10.7562 9.02446 2.88162 -1.75522 1.34466 
520 1 32.5213 8.95992 8.982 -2.83086 2.40118 0.0439757 
555 1 30.6732 10.785 8.97839 0.888822 -0.93227 3.68113 