ITEM: TIMESTEP
9000
ITEM: NUMBER OF ATOMS
4000
ITEM: BOX BOUNDS pp pp pp
-8.3748037196084368e-02 3.6233748037196506e+01
-8.3748037196084368e-02 3.6233748037196506e+01
-8.3748037196084368e-02 3.6233748037196506e+01
ITEM: ATOMS id type x y z vx vy vz 
4 1 -0.0127596 1.70398 1.60804 0.0260441 0.545357 1.65042 
202 1 1.59316 1.75409 3.68251 -3.33421 3.04093 0.648317 
631 1 27.1644 0.0209652 12.5302 -0.801298 0.416014 2.10863 
2833 1 28.9081 17.9528 14.4968 -2.12901 1.23102 1.22116 
8 1 3.4858 1.7598 1.66556 2.00572 0.462182 -0.109149 
415 1 12.5147 0.00813541 8.94046 0.372118 1.5893 0.0107404 
1090 1 9.06797 9.08974 18.07 -1.31126 -0.686055 0.781719 
817 1 14.3874 -0.0224375 14.3799 2.62821 -0.00600247 -1.21836 
12 1 7.08921 1.53158 1.702 -2.70405 2.66129 -2.36557 
2433 1 28.9784 18.0403 7.29113 2.91313 2.28309 0.548338 
16 1 10.8036 1.59994 1.66375 -1.08848 0.726476 -4.1076 
214 1 12.5514 1.63842 3.48493 -0.319565 -1.41064 0.108409 
427 1 23.6055 0.0524739 9.0374 0.821497 1.49596 -0.646865 
34 1 30.7454 1.81062 0.0789263 -1.42693 3.39192 -1.54229 
20 1 14.3683 1.76573 1.77235 -0.754689 -1.77276 3.32855 
59 1 16.1318 3.54614 1.65864 -2.07405 -0.968535 -0.901849 
803 1 1.6042 -0.0491113 16.0677 2.08126 0.447358 -4.97789 
257 1 14.5232 3.57416 3.54718 1.44128 0.599622 -0.993812 
73 1 28.9265 3.62752 0.0550283 0.34349 -1.06822 1.95522 
1126 1 5.47084 12.7155 18.0172 2.87154 0.0436306 1.6519 
24 1 17.8636 1.88913 1.66834 -2.59225 -2.08138 -1.45403 
261 1 18.0231 3.56256 3.45912 -2.36044 0.7867 1.48143 
999 1 34.5628 14.4934 16.1917 2.39639 0.313463 -1.25867 
2231 1 27.2598 18.0535 5.45607 -1.12316 -0.172643 -1.99919 
28 1 21.7087 1.85646 1.76984 -1.13176 -1.34102 -0.491555 
63 1 19.8697 3.52321 1.73931 -1.77436 -2.03085 0.196896 
222 1 19.8651 1.86972 3.54896 -0.905191 2.53544 1.06025 
94 1 12.6238 8.88191 -0.0388902 -0.0260048 -0.802761 1.89362 
32 1 25.3986 1.61145 1.73763 -1.94738 -1.03931 -1.90922 
67 1 23.7459 3.49882 1.69305 -2.15432 -0.311119 -3.006 
36 1 28.9241 1.78173 1.77199 2.01959 3.79737 -3.27579 
71 1 27.0273 3.48375 1.68467 0.516674 -0.0360043 2.03765 
2417 1 14.3532 17.9712 7.1539 0.618055 -0.337088 -3.15744 
138 1 16.2252 12.5557 -0.0720699 -1.45055 1.24595 -1.42344 
1054 1 12.5812 5.42868 17.9398 -0.149892 -3.31509 1.48607 
109 1 25.2723 7.09435 -0.0749841 -1.71619 1.18429 -1.08374 
40 1 32.6136 1.66154 1.75874 -1.00451 -0.851998 -2.58118 
225 1 21.6814 0.020677 3.48044 -2.56262 -1.00862 2.34284 
35 1 30.724 0.029318 1.75676 2.55453 -3.35129 1.79155 
133 1 10.7335 10.7942 -0.0941953 2.2934 -2.33657 -1.53267 
43 1 1.64265 3.53362 1.69136 -1.29606 3.19552 -2.26287 
44 1 36.2168 5.32636 1.67365 3.1419 1.56197 -1.11618 
83 1 1.71899 7.17679 1.7438 1.0093 -1.21428 0.265953 
2809 1 7.13493 18.032 14.3685 -2.75815 0.128999 3.76131 
93 1 10.7068 7.08051 -0.0443229 0.673261 3.06097 -2.15824 
47 1 5.46509 3.43431 1.59895 -0.725236 -4.08057 -0.394987 
48 1 3.51695 5.479 1.74586 1.71705 -3.68974 1.21947 
2227 1 23.5644 17.9662 5.34574 -0.862207 1.22151 0.418653 
113 1 29.0583 7.12298 -0.061914 -1.42278 0.973049 1.01828 
6 1 5.3237 1.67914 -0.137268 -1.69493 -5.90559 -4.67965 
51 1 8.94296 3.44812 1.64676 4.13333 1.4665 -2.37702 
52 1 7.15357 5.39992 1.81147 -1.71084 -1.2045 1.6466 
250 1 9.09647 5.45957 3.49117 -0.108222 -3.27222 -0.197059 
197 1 32.5887 14.558 0.0291282 1.52181 -2.29423 -1.92619 
55 1 12.5929 3.55163 1.75104 -0.230425 0.41033 2.74413 
56 1 10.7293 5.331 1.6568 -0.781234 0.437582 0.293267 
95 1 12.4621 7.11872 1.66626 -2.32822 0.200927 -4.30137 
253 1 10.6701 3.36944 3.47807 1.17701 -0.881605 2.37651 
23 1 19.7864 0.124784 1.71055 -2.51905 -2.53786 -1.09618 
60 1 14.4172 5.38421 1.64215 -2.09739 -0.170146 0.649471 
99 1 16.2525 7.25454 1.72671 -1.6621 -1.55598 0.750179 
411 1 8.98505 0.0205005 9.03238 -3.22258 -0.740211 -2.08502 
110 1 27.0029 8.99617 -0.00379093 1.73517 3.42515 -1.95572 
258 1 16.2733 5.29797 3.51009 -2.23454 1.2006 -0.931603 
64 1 18.0177 5.43794 1.60358 -3.14145 0.0558826 0.702777 
68 1 21.6448 5.24906 1.76403 0.783077 -1.40117 -3.22117 
103 1 19.8947 7.18581 1.81573 2.21069 4.54976 -3.76016 
305 1 21.6377 7.07489 3.73599 -3.00236 0.483038 3.23393 
807 1 5.29254 -0.178096 16.3179 2.05793 -5.22418 -0.477 
72 1 25.3746 5.40676 1.87932 -1.25778 1.3685 1.0597 
76 1 28.9436 5.34061 1.84195 -0.506406 2.35473 -1.6561 
313 1 29.0068 7.22712 3.49353 -2.0224 -0.0692963 1.40044 
111 1 27.1556 7.18122 1.81467 0.727539 -3.75282 -1.93454 
75 1 30.7311 3.57472 1.86815 0.108373 0.717561 -3.19415 
80 1 32.6949 5.40529 1.77119 -0.0946768 -0.757408 0.3835 
115 1 30.7923 7.09728 1.78872 0.932343 0.626043 1.84464 
154 1 30.6838 12.7129 0.0378477 1.42492 3.00623 2.5393 
79 1 34.4945 3.52125 1.67794 1.80091 1.00508 0.521943 
198 1 34.4962 16.2644 0.0107493 1.63438 6.03863 0.195943 
84 1 -0.0319644 9.01889 1.78835 0.806251 -0.23825 -1.97945 
123 1 1.7648 10.8155 1.84416 -2.85693 -0.0533302 0.243705 
121 1 0.0502887 10.7922 -0.110229 3.22331 2.99213 -2.27604 
87 1 5.3564 7.32433 1.78195 -1.87692 -0.531227 -2.5496 
88 1 3.57015 8.98272 1.82824 0.0247812 1.45297 1.88337 
127 1 5.35581 10.7856 1.74454 -0.378374 -1.35811 -1.21826 
286 1 5.42869 9.02055 3.61603 -0.551968 2.95336 -1.58705 
134 1 12.6021 12.5653 0.0953088 0.673782 0.0911656 1.09261 
91 1 8.94619 7.21683 1.60198 -1.52974 -2.69507 -0.537675 
92 1 7.31915 8.9424 1.62558 1.66402 1.63717 0.69691 
131 1 9.05692 10.7961 1.77943 0.0908602 0.711448 2.09128 
2631 1 27.1588 18.0437 12.6775 -1.09557 -0.231213 -1.15074 
293 1 10.7266 7.19365 3.40102 -2.77142 3.97898 -0.363426 
96 1 10.8623 9.07518 1.69664 1.12325 5.05373 -0.545414 
135 1 12.6066 10.8122 1.8276 -1.83169 -0.950188 -0.739016 
294 1 12.5581 9.02081 3.55924 1.25584 0.838313 1.65851 
221 1 17.9229 0.114505 3.4217 3.09721 1.86062 0.712705 
100 1 14.3454 8.93033 1.83864 -0.469337 3.70832 -1.5249 
139 1 16.2605 10.7822 1.75945 -0.953751 3.13934 3.46302 
297 1 14.3931 7.11821 3.46185 -1.20081 1.03318 1.00008 
337 1 14.4439 10.7536 3.48189 0.701068 0.412994 -3.00839 
237 1 32.5039 -0.0624265 3.51721 -1.94469 0.448739 -1.29423 
104 1 18.1157 9.01448 1.87733 -0.00677596 0.307171 -0.0365952 
341 1 17.9671 10.7486 3.57025 -3.30514 -0.632154 0.51162 
607 1 5.28265 -0.0429885 12.6382 -0.71407 -1.04937 2.13653 
108 1 21.7061 9.01617 1.93223 2.53713 3.66373 -3.02595 
19 1 16.1189 0.0279654 1.70583 -0.419036 2.68528 0.656725 
107 1 23.5176 7.17356 1.86805 -2.13881 -0.441306 2.61061 
112 1 25.2938 8.98229 1.75315 2.14574 -1.89345 -0.736798 
147 1 23.4511 10.8371 1.79149 -0.344844 -2.52727 -1.35288 
349 1 25.2887 10.8095 3.46743 0.956635 4.99087 0.134605 
306 1 23.6411 8.98462 3.63873 -1.92429 -0.204401 2.42292 
116 1 28.9235 8.96359 1.69077 0.853415 -2.00014 -0.595159 
310 1 27.066 9.12804 3.53943 1.23237 0.462957 0.810515 
353 1 28.8909 10.7086 3.58297 -3.71679 -1.26072 -1.04531 
2831 1 27.1173 18.0311 16.1809 -0.351006 -1.87385 -0.888188 
193 1 28.7705 14.4307 -0.0585737 2.19177 -1.47934 -0.129033 
120 1 32.622 9.09273 1.7029 1.01022 -1.89765 -3.63617 
314 1 30.8271 8.96699 3.5559 2.53363 -1.46946 0.90735 
1122 1 1.82459 12.6949 18.077 1.51804 0.357963 1.99811 
119 1 34.4938 7.14108 1.65965 3.71851 0.0235807 -1.48194 
318 1 34.3581 9.14326 3.35785 -0.15805 -1.32149 1.70035 
31 1 27.1013 -0.0426285 1.74856 -0.771407 1.16707 -0.651466 
70 1 27.2571 5.29916 0.0705529 -1.20477 -1.62345 -1.97748 
124 1 36.1869 12.6656 1.75131 -1.70567 1.49368 -0.481974 
2039 1 34.4019 18.0518 1.96718 0.0174776 0.856233 -2.83555 
128 1 3.55176 12.6606 1.65577 2.10087 -0.861562 0.794573 
326 1 5.44104 12.6364 3.45687 2.856 -1.86979 0.435411 
325 1 3.73338 10.8987 3.55816 -0.536528 -0.118156 1.30621 
211 1 8.91084 0.0013485 5.24316 -1.16426 0.297943 -4.63784 
2023 1 19.7236 17.995 1.75923 2.00334 0.154317 -1.13262 
132 1 7.14967 12.6976 1.72869 1.35217 2.616 -0.188738 
171 1 8.93385 14.5188 1.84554 -0.265724 1.95288 0.586062 
2637 1 32.5436 18.0563 10.8828 -2.72113 4.22861 2.37769 
173 1 10.6622 14.4311 0.0395574 0.610313 -2.40039 -0.622845 
136 1 10.7398 12.6387 1.73734 4.44801 -1.03978 2.31947 
334 1 12.6778 12.6374 3.52561 -2.04807 1.81199 -0.66254 
102 1 19.8883 8.84724 -0.0133864 -3.70612 -2.49315 0.00420872 
140 1 14.4804 12.5691 1.81614 -1.07699 4.2637 -0.966554 
338 1 16.2451 12.6022 3.50206 2.85758 1.70191 5.5164 
179 1 16.1852 14.4432 1.67605 -0.0622407 2.19487 -1.51956 
435 1 30.7233 0.0746613 8.93995 2.32691 2.64507 -1.19144 
62 1 20.0032 5.40805 -0.0984624 -2.28448 -4.0076 -1.50889 
144 1 18.0193 12.6449 1.7749 -1.06443 0.577891 -1.40984 
381 1 18.0133 14.4225 3.54595 -0.798866 -0.836977 2.597 
105 1 21.7711 7.18538 0.0650026 -2.92865 -1.00501 1.37109 
1045 1 3.49706 3.59829 17.9595 -0.381765 -0.184179 -2.57023 
143 1 19.8885 10.7333 1.80793 -2.05143 -1.05917 -2.59196 
148 1 21.5769 12.5568 1.74491 -3.01294 -1.00865 -0.395205 
342 1 19.8413 12.6013 3.62701 1.67774 3.45332 0.270626 
183 1 19.8303 14.3631 1.71439 1.65537 0.908219 -0.543415 
152 1 25.3212 12.6374 1.68978 0.924292 -2.89275 -0.973149 
151 1 27.259 10.9581 1.78358 -0.788308 -1.08296 0.530968 
156 1 28.9524 12.7064 1.86488 -2.17844 5.22244 -1.63102 
350 1 27.1141 12.6388 3.46465 0.627636 -2.52714 1.32513 
191 1 27.0855 14.3375 1.70803 -1.4489 -3.60608 1.06457 
421 1 18.039 0.012219 7.07605 2.18915 1.56394 -0.921288 
155 1 30.9245 10.8952 1.93311 -0.336347 -1.74859 -0.572085 
160 1 32.6219 12.7411 1.62039 -0.283873 3.81392 2.08452 
195 1 30.7013 14.4337 1.83274 0.448887 -1.08064 2.9214 
397 1 32.747 14.4555 3.54402 0.826939 3.46514 2.90028 
2825 1 21.5903 18.0727 14.4947 0.755352 1.33738 -3.0946 
159 1 34.3926 10.903 1.63736 1.55095 0.369352 -0.570259 
1053 1 10.8272 3.45261 18.0061 2.14103 -0.938721 0.434535 
163 1 1.75935 14.5032 1.73458 -0.945144 1.9984 -1.36956 
231 1 27.1516 -0.0564924 5.42416 -0.750018 -1.33102 1.13764 
365 1 3.53478 14.3603 3.63648 1.53984 4.46962 -1.14652 
167 1 5.43051 14.547 1.74247 -1.35479 1.03496 -1.97519 
168 1 3.60164 16.1906 1.74445 0.505136 0.56742 -1.17389 
1000 1 32.6356 16.1216 16.1503 3.79853 0.35036 -1.30205 
1125 1 3.6739 10.9426 17.945 6.10266 -0.698064 0.823718 
369 1 7.12575 14.5057 3.52283 0.441902 -1.85645 -1.06184 
172 1 7.16956 16.2418 1.67558 -0.393713 -0.186344 1.38064 
370 1 8.85708 16.3039 3.58013 3.44538 -0.600139 0.56827 
22 1 19.7843 1.80101 -0.0595752 1.55702 2.85385 0.541475 
1062 1 19.8672 5.30357 18.0444 1.52032 -0.500689 2.56552 
813 1 10.6713 -0.0579129 14.4203 0.977654 -1.53794 2.69028 
175 1 12.6446 14.3482 1.89457 0.572003 0.84081 -2.47242 
176 1 10.8772 16.1705 1.68946 -2.73621 -0.944386 -3.45655 
373 1 10.7534 14.4378 3.5389 1.53823 -0.636948 -3.8145 
374 1 12.5513 16.2406 3.69718 -1.55445 -0.847891 1.33097 
1069 1 25.1902 3.58248 18.0843 -1.11079 -0.991543 1.3288 
180 1 14.4117 16.1592 1.85701 0.209992 0.812407 0.231723 
2625 1 21.7942 18.0984 10.8921 -1.53549 2.80954 -1.996 
184 1 18.1114 16.1723 1.81945 -1.76351 3.59558 -2.6679 
2235 1 30.671 18.0383 5.41693 -0.998582 -0.38378 -4.74176 
2025 1 21.616 18.0927 -0.0625047 0.27617 1.27571 0.0214174 
188 1 21.7408 16.1784 1.69131 0.13204 1.40328 2.73697 
385 1 21.8209 14.5357 3.52236 -0.37871 0.013174 -4.10838 
1138 1 16.376 12.7611 17.97 -2.58733 -1.78465 -1.71387 
101 1 18.0467 7.18398 -0.130926 -2.45118 3.23974 -2.81541 
1105 1 21.7071 7.14168 18.0891 4.25605 -0.281323 2.27357 
187 1 23.557 14.468 1.73783 -1.99536 -1.07549 2.63128 
192 1 25.2658 16.2896 1.67341 0.0161525 -2.28122 1.13842 
389 1 25.3687 14.4604 3.44043 4.65722 -2.96068 3.05641 
106 1 23.5044 8.93744 -0.00212489 -3.73331 0.946292 -1.50598 
995 1 30.6764 14.5176 16.3374 -1.22064 -0.357063 0.756377 
196 1 28.8415 16.3107 1.85585 2.58059 -2.8768 -1.40142 
390 1 27.1741 16.1356 3.67642 0.405595 2.82547 -3.21643 
393 1 28.9614 14.481 3.64043 3.31596 -0.903806 4.55594 
200 1 32.7179 16.2373 1.8331 0.591664 0.559857 -4.3331 
394 1 30.8261 16.2186 3.58021 2.1458 -1.23798 1.69669 
2633 1 28.966 18.0295 10.9392 0.645486 2.44007 -2.15125 
1170 1 8.93759 16.2927 17.8581 1.27025 0.332833 -2.68472 
199 1 34.5837 14.449 1.70496 0.249764 1.09659 1.15643 
164 1 0.0211316 16.3688 1.81955 2.68402 5.27544 0.582648 
398 1 34.5254 16.2219 3.47209 -0.00992391 -2.14772 0.89176 
990 1 26.9661 16.2446 14.4428 2.4178 -0.936999 0.194427 
819 1 16.1733 -0.0529152 16.1872 0.756227 -1.71242 0.23831 
39 1 34.4438 0.00880527 1.65967 1.88556 -2.63869 2.55347 
2409 1 7.07331 17.9882 7.08752 0.751033 -2.86238 3.04441 
204 1 -0.0645569 1.72789 5.40813 -0.550277 0.851089 -0.391163 
1061 1 17.9526 3.62305 18.0224 1.24605 3.14113 -0.707223 
206 1 5.22529 1.68245 3.47645 -4.33536 0.304436 -2.32528 
208 1 3.50453 1.6551 5.42937 0.427537 0.176528 2.12624 
1169 1 7.18615 14.417 17.9874 0.674545 3.56014 -0.376471 
210 1 8.95499 1.78577 3.5074 -1.30669 -1.2209 -1.6683 
821 1 17.8854 -0.0350817 14.4232 -3.57941 1.27074 -0.891385 
212 1 7.04521 1.65029 5.34935 1.55343 0.944844 -0.642296 
449 1 7.19286 3.56025 7.22474 -0.852643 -1.15311 0.643244 
216 1 10.8691 1.78693 5.39377 -0.872373 1.59699 3.5033 
414 1 12.5309 1.72861 7.11507 1.0413 -0.712205 -1.07926 
996 1 28.8617 16.2772 16.3885 1.31 -0.778241 0.749636 
220 1 14.4024 1.72771 5.41281 -0.0553733 1.85352 -1.06883 
259 1 16.164 3.54059 5.48301 -2.92983 2.32484 -1.27205 
457 1 14.2553 3.51356 7.16376 -1.5167 -0.39618 -1.55364 
218 1 16.2229 1.73273 3.63963 1.52889 -0.703614 1.30588 
224 1 18.0888 1.87436 5.29401 -0.37364 -2.16163 -0.480109 
461 1 18.1069 3.52605 7.45649 2.31379 2.73412 -2.87903 
418 1 16.2859 1.78883 7.29114 -2.44053 4.8493 2.0193 
228 1 21.7907 1.82587 5.36113 -3.83133 -0.121839 2.76658 
422 1 19.8983 1.84936 7.16728 -0.0580412 1.10356 1.64437 
226 1 23.592 1.67946 3.5677 -0.97773 -3.75777 -2.02732 
232 1 25.2249 1.71517 5.44555 -3.80627 1.70502 2.19582 
426 1 23.4942 1.83974 7.24722 1.18514 -1.16855 2.00379 
993 1 28.9024 14.4917 14.4921 0.0687982 -2.32712 0.499337 
230 1 26.9689 1.6595 3.66896 2.67235 -3.03611 -2.51927 
236 1 28.8509 1.68209 5.29432 2.96295 -1.10991 0.0654623 
273 1 28.9664 3.67133 3.68871 2.45506 1.13598 1.78796 
271 1 27.1651 3.62895 5.44346 -0.741794 2.65282 0.320609 
430 1 27.1419 1.8099 7.22443 -1.33746 0.817658 0.614627 
1161 1 -0.0344667 14.433 18.0583 -3.37999 1.37205 -1.15903 
2237 1 32.5789 17.9485 3.60899 2.60717 -1.76758 0.262404 
234 1 30.7845 1.60313 3.52384 -0.233527 1.62029 2.87964 
240 1 32.6202 1.65669 5.46406 4.44087 -6.20855 0.986564 
434 1 30.7276 1.84988 7.20541 -1.2091 1.65555 0.360628 
238 1 34.3811 1.78362 3.50842 1.22885 1.71148 -2.42288 
242 1 1.73887 5.48584 3.57499 2.09083 0.267875 -5.58635 
281 1 36.1987 7.12465 3.42108 0.797351 2.96217 2.74378 
243 1 1.70265 3.53241 5.36028 0.283548 -2.2286 -1.17796 
283 1 1.70724 7.19132 5.30509 3.45548 -1.55493 -1.51753 
442 1 1.78375 5.3163 7.08798 1.13534 -1.93029 3.97195 
245 1 3.49632 3.48094 3.55487 2.24007 0.183619 3.26828 
246 1 5.37911 5.32259 3.47689 0.390638 -0.939487 -1.33255 
247 1 5.3963 3.45986 5.21142 -5.1683 1.08344 1.55995 
248 1 3.61545 5.26872 5.31458 0.0457924 0.991901 -0.942675 
249 1 7.28297 3.57162 3.50454 -2.56544 -3.84827 -1.1169 
251 1 8.962 3.43797 5.27843 -2.19364 -2.74737 1.64101 
252 1 7.07942 5.41825 5.35383 -1.09838 1.15696 1.75188 
450 1 8.90443 5.39277 7.18282 1.12413 1.00468 1.58254 
289 1 7.15699 7.27509 3.45327 3.46873 -3.9872 -0.451936 
489 1 7.24666 7.21473 7.28103 1.50656 -0.693019 0.322604 
254 1 12.7281 5.40401 3.59048 -1.02432 -1.80011 -0.117788 
255 1 12.6246 3.61865 5.22205 -0.976254 1.17315 -1.22192 
256 1 10.8488 5.35836 5.25319 0.0678543 1.22625 0.734007 
295 1 12.6604 7.13952 5.35885 -0.597418 -0.185576 0.366785 
260 1 14.4288 5.26043 5.45291 -0.153818 1.08151 -0.795161 
458 1 16.3372 5.42695 7.37462 0.788174 1.23398 1.55045 
497 1 14.4156 7.08483 7.0672 0.588943 1.05716 0.956283 
264 1 18.025 5.24144 5.288 2.37524 -1.06319 -5.00665 
501 1 17.963 7.18322 7.26832 0.951154 1.38348 2.26825 
265 1 21.7034 3.50681 3.54311 0.754961 -0.266933 3.46612 
262 1 19.826 5.35237 3.41768 -2.49355 -0.238087 -2.06299 
263 1 19.7947 3.64462 5.37233 -1.22129 0.655708 -2.89126 
268 1 21.7638 5.28961 5.31966 -1.34269 0.329678 2.63697 
462 1 19.7921 5.29155 7.21222 1.18525 -2.66018 -4.0944 
269 1 25.4458 3.55813 3.54677 1.05419 0.194925 -2.47151 
266 1 23.4508 5.31205 3.57417 -0.618758 0.00355935 1.34997 
309 1 25.4728 7.20921 3.64686 0.0859208 1.01369 1.86703 
267 1 23.5038 3.63396 5.38768 -1.50275 3.74689 2.80296 
272 1 25.2462 5.32622 5.42708 0.8206 -2.31039 0.394441 
307 1 23.511 7.16822 5.33921 1.36123 -0.867103 -0.411382 
466 1 23.5511 5.41154 7.33431 0.270282 1.2432 5.05533 
270 1 27.1236 5.33108 3.54898 2.27829 1.47868 0.922192 
276 1 29.0411 5.2545 5.52066 -0.417148 0.540316 -0.202685 
311 1 27.199 7.1319 5.34101 -0.145467 -2.99151 -1.4779 
470 1 27.2214 5.38317 7.26326 0.721574 -0.269667 -3.12325 
274 1 30.825 5.34969 3.54881 -4.1849 -0.440743 -1.50646 
277 1 32.571 3.59149 3.57378 -1.52293 -1.53387 -1.35288 
275 1 30.7359 3.48078 5.46481 0.823019 0.500652 2.01723 
280 1 32.51 5.1742 5.48917 -2.53264 2.20789 -1.43356 
241 1 36.1796 3.39718 3.45735 2.60905 -0.794517 -1.6804 
279 1 34.4669 3.54886 5.41594 1.92628 0.829893 -1.84311 
244 1 0.036057 5.36175 5.24931 0.148043 -4.57292 -0.0554067 
278 1 34.3395 5.2578 3.56621 0.0182706 1.24349 -2.56407 
282 1 1.72628 8.95356 3.65816 -1.94425 1.91795 0.764747 
323 1 1.61792 10.7474 5.43876 -2.53056 -1.94025 1.68404 
481 1 -0.0926694 7.09091 7.16486 -4.3797 1.48956 -0.233113 
285 1 3.60184 7.12446 3.47508 -2.32605 1.81664 5.30425 
287 1 5.50254 7.23626 5.39045 -0.935939 -0.973517 1.88138 
288 1 3.64102 9.02617 5.35737 2.06899 -4.66313 -2.14291 
327 1 5.44466 10.826 5.44619 -1.78097 1.1707 -1.85039 
290 1 9.03144 9.05149 3.56597 -1.41307 1.8408 0.788104 
291 1 9.10031 7.29508 5.21208 0.238614 -0.369604 0.703869 
292 1 7.30604 9.02599 5.3654 1.30329 -0.229529 -3.42127 
333 1 10.7289 10.8444 3.59281 -0.14459 -0.0131772 -1.64676 
296 1 10.8379 8.89804 5.35544 0.767256 0.117647 2.39083 
335 1 12.6626 10.6658 5.5105 0.614906 -1.58585 0.338029 
533 1 10.8889 10.7742 7.21904 2.03436 -0.888121 -0.738916 
494 1 12.6616 9.01139 7.25082 1.19872 -0.249161 1.44171 
299 1 16.2649 7.01117 5.35569 0.675492 -1.80249 1.56461 
298 1 16.3035 8.95163 3.55135 -2.1996 -2.13891 -0.0131769 
300 1 14.452 8.94889 5.24224 1.08182 -0.603274 -3.91308 
339 1 16.1916 10.7756 5.40764 -1.52298 1.08303 1.84116 
301 1 18.1736 7.09165 3.585 -0.731403 2.54705 3.1185 
304 1 18.0978 8.81351 5.46889 0.568218 -2.71684 2.2447 
302 1 19.8477 8.89742 3.66545 0.817078 0.325649 -0.858165 
303 1 19.8716 6.97095 5.48262 1.14707 -1.05281 0.836182 
308 1 21.7036 8.89848 5.42189 1.51129 2.36819 -1.43156 
502 1 19.894 9.01486 7.16608 -2.93196 -2.27184 0.761501 
312 1 25.2843 9.08363 5.39309 1.53005 -0.709587 -1.20043 
506 1 23.4097 8.95872 7.09203 0.253651 1.08598 1.69871 
316 1 28.8952 8.83169 5.32693 -0.99698 0.257258 1.93696 
553 1 28.9574 10.7342 7.1489 -1.48583 2.7073 0.734204 
510 1 27.1866 8.99548 7.16197 3.15142 0.695073 -2.55251 
317 1 32.74 7.1769 3.46374 4.53293 -2.02767 -0.491663 
315 1 30.773 7.15586 5.3794 -1.24858 2.17634 -1.48434 
517 1 32.5213 7.24999 6.99887 -1.96117 1.94477 1.84767 
320 1 32.6049 9.06115 5.36288 -2.78657 0.0166652 1.50723 
284 1 36.1292 8.93954 5.24282 4.04275 3.57749 2.38332 
319 1 34.4503 7.22011 5.1828 3.44025 -2.66085 1.45495 
322 1 1.69866 12.6641 3.47042 -0.778154 -0.342879 0.63875 
328 1 3.4533 12.5548 5.37939 1.21051 -0.515592 -3.54965 
526 1 5.41441 12.6804 7.21589 3.44448 -1.8345 -2.35446 
367 1 5.26168 14.3075 5.52954 1.13165 0.880017 -0.653459 
329 1 7.13566 10.8244 3.47645 0.0629064 -1.03484 -1.55521 
331 1 8.98037 10.909 5.39993 -1.27713 4.20516 0.333031 
330 1 8.94263 12.7401 3.49924 0.934697 0.58114 0.0661265 
332 1 7.24888 12.8386 5.33317 -0.315679 -0.540365 0.578664 
530 1 9.02684 12.7184 7.21771 -3.31351 -0.419935 -0.384985 
336 1 10.8184 12.5182 5.42389 1.11102 -2.0253 -2.07651 
375 1 12.5416 14.4437 5.30314 -2.35826 2.19211 1.13033 
377 1 14.4841 14.4041 3.58383 0.523072 2.42572 -4.25131 
340 1 14.423 12.5864 5.34388 -0.0905962 1.78057 1.38696 
379 1 16.352 14.3575 5.35747 -0.0922218 0.746406 -2.00194 
577 1 14.5353 14.5321 7.14572 -0.354237 -0.699317 0.0667805 
344 1 18.0781 12.631 5.36697 3.31066 -2.03399 0.654454 
581 1 18.1009 14.4104 7.21735 -0.839097 0.251962 -3.71976 
345 1 21.6816 10.682 3.67994 0.836288 -1.36663 -1.86793 
343 1 19.8723 10.8 5.37881 0.81529 1.19837 -1.7208 
348 1 21.7221 12.6454 5.29119 -2.3757 -0.868989 0.8424 
542 1 19.8928 12.5182 7.15486 -0.802527 -2.03124 0.518986 
545 1 21.7086 10.9449 7.26035 2.78406 -0.149964 1.6498 
383 1 19.8127 14.3154 5.28868 -1.71581 -0.7127 -2.28055 
346 1 23.5421 12.6741 3.46352 0.950825 -0.0193103 0.802136 
347 1 23.4613 10.8093 5.38895 -1.31356 0.314293 -4.09793 
352 1 25.2769 12.6226 5.20109 0.0495831 0.0906809 -1.39638 
549 1 25.186 10.79 7.10248 0.893059 1.2521 0.555942 
351 1 27.0952 10.7797 5.45691 -1.85202 -1.26891 1.41921 
356 1 28.9476 12.5066 5.3454 -1.30444 -0.192748 1.51801 
550 1 27.1614 12.5567 7.24367 -2.6714 0.0813644 2.65635 
593 1 28.8111 14.3129 7.23903 -1.72549 -1.6591 -1.96274 
357 1 32.6037 10.7988 3.6294 -0.827829 0.211421 1.23094 
354 1 30.7275 12.623 3.57589 -3.08818 -1.36095 1.55627 
355 1 30.7171 10.6932 5.28779 1.49017 0.353857 3.88835 
360 1 32.5682 12.4594 5.38344 1.87787 -3.00899 0.952692 
395 1 30.8207 14.3223 5.38979 5.89597 0.460996 -0.209422 
321 1 36.1891 10.8615 3.60967 -1.69543 1.90205 1.86705 
358 1 34.3996 12.6267 3.59819 -0.122068 1.02561 -1.07633 
359 1 34.5234 10.8331 5.3799 -2.75583 0.937679 -3.2822 
324 1 36.2105 12.7492 5.40393 3.11032 -1.2713 -4.73504 
558 1 34.3938 12.6373 7.17692 1.21937 -0.330265 -3.69415 
362 1 1.80747 16.281 3.58882 2.5103 -1.29767 0.475989 
363 1 1.75108 14.4971 5.37606 0.547756 -2.81233 -3.24342 
562 1 1.70786 16.4227 7.1402 -0.684942 -1.32789 -0.743384 
565 1 3.40087 14.329 7.21254 -0.648134 5.05731 0.402771 
366 1 5.31264 16.2692 3.70231 1.39508 -3.57201 3.41896 
368 1 3.62827 16.3609 5.4498 -0.0799491 -0.911208 0.129803 
566 1 5.28839 16.1757 7.1339 0.840638 4.70737 0.569038 
371 1 9.02675 14.4804 5.38981 -2.13998 0.601081 -3.05491 
372 1 7.15077 16.1203 5.39298 1.26296 -1.06993 -2.91338 
569 1 7.25638 14.5522 7.23816 -0.312049 -1.30691 -1.61419 
1181 1 18.094 14.6158 18.0518 0.0809488 1.1327 3.90006 
217 1 14.3463 -0.0451206 3.59295 2.54137 -0.410583 -3.25 
376 1 10.6617 16.3123 5.29107 -2.30354 1.30484 0.716896 
114 1 30.7614 8.96315 -0.071982 -0.923001 -1.44022 -1.59455 
378 1 16.3948 16.3754 3.71717 -2.1953 1.69463 -2.96018 
380 1 14.3843 16.3079 5.4159 -1.12485 -1.57486 -2.78683 
986 1 23.5739 16.3307 14.5061 0.25212 -0.382152 2.46846 
2035 1 30.6539 17.9076 1.74213 -1.33515 1.26813 4.14944 
384 1 18.1306 16.1974 5.31739 -0.748549 2.61833 0.15178 
21 1 18.0324 -0.00286216 -0.0892246 -0.382146 1.34318 -1.75794 
429 1 25.3808 -0.0602366 7.05975 0.877143 -5.23142 1.0809 
582 1 19.8815 16.1939 6.98677 2.85028 -0.758121 0.836992 
382 1 20.0291 16.2066 3.60208 0.498309 -0.664421 -1.80946 
388 1 21.7512 16.2207 5.32018 0.255775 0.427671 0.431242 
386 1 23.7131 16.3273 3.48047 0.350966 2.08002 0.814449 
589 1 25.4564 14.2967 7.2449 1.47737 -0.762443 -0.243748 
387 1 23.4936 14.475 5.33251 -2.34875 -2.10211 -1.07221 
392 1 25.4501 16.2887 5.44444 -4.08045 -0.839297 2.78955 
586 1 23.3683 16.1648 7.15911 -1.65784 -0.790166 -2.86946 
1158 1 34.3369 12.5877 17.9324 3.70749 3.80198 -3.89069 
391 1 27.0555 14.3875 5.36924 5.35209 1.89295 2.70519 
396 1 28.877 16.1839 5.54605 -0.274719 1.16875 -4.27055 
590 1 27.1569 16.3378 7.38932 -0.352963 4.59544 3.86336 
992 1 25.3341 16.1869 16.3485 1.2833 -1.00699 -3.96087 
400 1 32.5771 16.2227 5.34526 -0.700177 -2.27558 2.85047 
597 1 32.5434 14.3498 7.20996 -1.26557 0.405215 3.29256 
594 1 30.8058 16.1807 7.2356 -2.90515 0.454028 -2.20598 
2629 1 25.2962 17.9439 10.7391 0.952551 1.47464 -0.122828 
361 1 36.2234 14.4103 3.61808 2.15596 4.52661 0.576947 
364 1 -0.0702969 16.3642 5.4401 -0.043465 0.699891 -0.287254 
399 1 34.3525 14.4825 5.3778 -3.1214 3.08487 0.880099 
598 1 34.4871 16.2013 7.29495 -1.57169 -0.162811 -0.602867 
402 1 1.88389 1.66054 7.26621 -1.80199 -0.710579 4.29487 
404 1 -0.0499717 1.59632 8.90319 -3.33928 1.20149 1.91848 
2609 1 7.14666 17.944 10.9316 -1.25508 4.00222 -1.8743 
406 1 5.26727 1.71361 7.12721 -2.41237 -1.1524 2.5217 
408 1 3.48731 1.83135 9.1047 1.00631 -1.86901 0.580539 
445 1 3.63866 3.45793 7.14747 -2.21663 1.65165 1.19244 
447 1 5.49599 3.50277 8.97511 3.06815 -0.0534326 -0.94 
1194 1 30.7973 16.3902 18.0318 -1.32734 3.01871 1.48737 
989 1 25.2849 14.393 14.4511 0.624891 2.43558 0.796712 
410 1 9.01606 1.67366 7.08353 -2.36728 1.4261 2.79673 
412 1 7.19646 1.71561 8.89498 -1.37061 -1.82375 0.0111671 
610 1 9.05333 1.66336 10.638 -0.90642 0.265669 3.33011 
2015 1 12.6999 17.9542 1.78167 -0.825319 -2.5374 -1.50474 
949 1 25.1895 10.8156 14.4402 -1.16633 -2.07665 0.746535 
2821 1 18.2419 18.0696 14.3595 3.86358 -0.509126 -2.37992 
947 1 23.561 10.7575 16.1457 -2.25199 1.28112 4.26664 
416 1 10.8107 1.77992 8.98551 -3.32229 -1.00135 1.35562 
455 1 12.4762 3.53794 9.04139 -0.314216 4.08867 1.61032 
420 1 14.3468 1.82515 8.98814 -0.438412 -3.33131 1.47426 
459 1 16.2494 3.6448 9.11349 -1.0345 2.07641 0.306755 
929 1 7.15535 10.8743 14.3295 1.11474 -0.296223 1.42343 
424 1 18.1073 1.70304 9.03248 -0.164326 2.37595 0.993825 
463 1 19.9951 3.51794 9.17004 -3.60788 -0.283108 1.0737 
661 1 18.1405 3.4976 10.811 0.441239 0.316915 -0.287839 
465 1 21.6695 3.55894 7.20373 3.39672 -0.766306 -0.258198 
428 1 21.706 1.81951 8.95009 5.27252 -1.16736 -2.64717 
982 1 20.0245 16.2236 14.5065 1.26123 -0.0576863 0.281239 
988 1 21.7737 16.3172 16.3936 0.962438 -0.393219 -2.44284 
622 1 19.904 1.68802 10.8045 2.20893 0.0481444 -1.91166 
469 1 25.3285 3.60376 7.37271 2.10179 -0.542626 2.17318 
432 1 25.3799 1.74328 9.10037 1.93928 -0.889657 -0.914679 
626 1 23.5146 1.74075 10.9041 -2.038 -2.78616 0.560839 
1097 1 14.3503 7.1644 18.0076 -3.16314 -0.394873 0.211838 
436 1 29.0269 1.74648 9.13192 2.3725 -0.502447 0.26216 
473 1 28.9066 3.58801 7.30243 2.05811 3.60489 1.4809 
673 1 28.8997 3.53206 10.8983 -1.17658 2.01228 -1.44985 
1058 1 16.0453 5.33222 18.0484 -0.184325 -0.610642 -0.103084 
440 1 32.625 1.71603 9.10988 0.866022 -2.38261 -1.71104 
634 1 30.839 1.77029 10.9444 -0.65472 -0.843421 2.63891 
677 1 32.6638 3.67679 11.0177 0.849309 -0.220786 -0.969965 
438 1 34.2807 1.557 7.22374 -5.93133 -1.60141 1.58568 
638 1 34.4377 1.66381 10.8047 -2.95355 -2.81675 1.98125 
2017 1 14.3256 18.1017 -0.0402982 -0.944318 4.38247 1.68298 
441 1 36.188 3.54918 7.18306 0.226179 -0.733933 0.759921 
443 1 1.69185 3.63003 8.93745 -0.822423 0.0984752 0.551917 
483 1 1.70892 7.20602 9.12922 -4.0731 3.01409 2.25883 
444 1 -0.0179053 5.50306 8.94316 -0.366008 -2.77705 -5.78627 
446 1 5.40469 5.39044 7.18712 -3.88407 2.22812 0.998995 
448 1 3.66735 5.39446 8.99665 4.15474 1.09304 1.78782 
487 1 5.47288 7.30318 8.97018 -1.20439 3.63054 2.47994 
645 1 3.59295 3.61149 10.684 -1.06403 -1.41368 1.46982 
451 1 8.99533 3.53481 9.03499 2.75215 -0.565488 1.12903 
452 1 7.17793 5.41491 8.96785 -2.32125 1.43072 2.14884 
491 1 9.02275 7.21706 8.94103 -2.48892 0.22692 2.62005 
650 1 8.99001 5.32982 10.8249 1.35935 -0.988926 -3.21234 
689 1 7.23452 7.15397 10.7647 0.564581 -0.908539 1.67769 
653 1 10.788 3.61808 10.7508 -2.9095 2.54447 0.042899 
453 1 10.8043 3.58878 7.14286 -0.525805 1.11778 1.49386 
454 1 12.6203 5.24322 7.20467 0.518202 -3.55636 1.18908 
456 1 10.7095 5.34905 8.91396 0.463345 -0.151916 -1.84215 
693 1 10.8109 7.20751 10.747 4.02712 1.32863 1.93393 
460 1 14.3355 5.27895 8.96697 2.7085 -1.86607 2.24189 
657 1 14.2121 3.61617 10.8582 -1.86164 0.0824528 -1.05606 
658 1 16.2322 5.36571 10.9873 0.341176 -2.04825 1.15097 
464 1 18.1593 5.37389 9.03894 4.05506 -1.8474 -0.683086 
701 1 18.11 7.16183 10.7086 1.68482 0.301895 2.94466 
505 1 21.7058 7.08118 7.15336 -2.8192 -1.0697 -0.829144 
468 1 21.6732 5.40827 8.98155 -0.377792 2.30696 0.765163 
705 1 21.5511 7.11093 10.832 -1.21568 2.04818 -2.40988 
665 1 21.8385 3.53735 10.832 3.76148 -0.0692939 -3.19813 
662 1 20.049 5.25403 10.8648 0.883467 1.13027 1.4825 
467 1 23.4992 3.60529 9.0927 2.72136 -2.62083 -2.37134 
472 1 25.4424 5.40254 9.05797 3.34048 0.405432 -2.39606 
666 1 23.4689 5.34993 10.8044 -1.47509 -2.79045 -0.563084 
709 1 25.2944 7.12642 10.8188 1.27412 0.705967 1.00689 
507 1 23.4825 7.27975 9.07281 2.76801 0.302357 0.263922 
471 1 27.1005 3.58207 9.11277 -1.22262 0.862529 -2.36871 
476 1 29.0701 5.42152 9.09718 -3.09724 1.23638 0.286887 
511 1 27.1539 7.29674 8.95282 -0.172898 -2.30913 1.66856 
713 1 28.87 7.26036 10.7098 0.354287 0.772875 -0.56221 
513 1 28.8728 7.18232 7.18694 -3.00565 -0.0998023 0.415733 
670 1 27.2323 5.4495 10.7978 -0.0565521 -2.13554 -2.02285 
474 1 30.7227 5.3488 7.10272 2.27185 0.671299 -1.29751 
477 1 32.5433 3.49531 7.30325 -0.764127 -0.443096 -5.41321 
475 1 30.7785 3.59527 9.20709 -0.830496 -0.771623 -2.13773 
480 1 32.5143 5.47705 8.77719 -1.77858 2.01896 -1.7458 
515 1 30.7678 7.34607 9.01055 -2.06278 0.0631161 -0.792418 
674 1 30.6794 5.43361 10.8928 1.10426 -3.02698 -1.83523 
478 1 34.4434 5.28112 7.0053 -2.65617 2.69554 -0.959644 
479 1 34.4133 3.58397 9.0698 0.927844 0.495335 -0.765267 
519 1 34.345 7.11654 9.01277 -1.64088 -1.31613 2.27503 
482 1 1.85608 9.00852 7.17472 -1.53942 -1.34345 -0.157088 
484 1 36.1524 8.97755 8.96416 2.37025 0.373071 -3.12183 
721 1 36.2094 10.8482 10.7376 1.91259 -2.07595 -0.257263 
486 1 5.30029 8.94601 7.12763 3.64969 -0.0283667 1.86912 
525 1 3.58484 10.7511 7.14666 -2.92677 -1.22587 0.663327 
485 1 3.60465 7.10479 7.18855 4.05924 -1.09082 -1.08275 
488 1 3.56063 9.0725 8.94762 0.0429537 2.59672 1.02336 
527 1 5.43567 10.8334 8.94518 5.4824 -0.929563 2.49194 
490 1 9.00082 9.06413 7.24494 -0.584765 -2.64057 0.191233 
529 1 7.24833 10.9927 7.27034 3.22202 2.21507 0.332979 
492 1 7.20001 9.16092 9.09449 0.133268 1.34485 1.23403 
690 1 9.05358 8.92295 10.7222 -0.915241 -1.3569 0.632941 
493 1 10.8539 7.18038 7.31318 1.52069 -1.1004 -2.28354 
495 1 12.7545 7.12192 9.09809 0.306859 -1.15947 -0.239677 