ITEM: TIMESTEP
8000
ITEM: NUMBER OF ATOMS
4000
ITEM: BOX BOUNDS pp pp pp
-8.4855549506979600e-02 3.6234855549507472e+01
-8.4855549506979600e-02 3.6234855549507472e+01
-8.4855549506979600e-02 3.6234855549507472e+01
ITEM: ATOMS id type x y z vx vy vz 
4 1 36.1672 1.719 1.91251 3.4779 -0.864276 -2.02812 
202 1 1.75831 1.75216 3.50873 5.16835 2.74502 -4.12764 
964 1 36.2345 16.3132 16.3087 0.523128 -0.272818 -1.45778 
3037 1 32.4764 18.0327 18.0591 -1.4288 -2.85657 0.851108 
8 1 3.53747 1.77956 1.81841 -0.87069 -2.88163 1.62857 
206 1 5.39743 1.73023 3.54918 2.61531 2.72776 2.19568 
999 1 34.4708 14.5102 16.1404 -0.288834 -0.0691659 -3.27802 
1173 1 10.7145 14.4288 18.0206 -0.381556 4.17988 -0.7148 
417 1 14.4029 0.0923011 7.09151 2.28616 1.41457 -2.82432 
12 1 7.21791 1.77402 1.82002 3.26679 -0.431378 -1.03714 
51 1 9.14277 3.46536 1.6747 -4.04392 -0.928143 0.274464 
210 1 9.10316 1.71378 3.56124 -1.20136 2.32117 2.22434 
249 1 7.26978 3.57172 3.56608 1.07699 4.11673 2.389 
2013 1 10.5896 17.9734 -0.0756196 0.0205039 -0.506158 -0.543409 
16 1 10.7369 1.73428 1.64594 2.18541 -3.61592 -3.03803 
55 1 12.4587 3.66393 1.71709 -1.02064 0.336838 1.6668 
214 1 12.5905 1.77114 3.62803 0.395839 -5.96744 -0.947224 
2405 1 3.482 18.0298 7.22792 -1.50846 0.681042 -0.766297 
20 1 14.3866 1.7215 1.73879 0.275198 -1.01193 3.04948 
59 1 16.4211 3.40972 1.67463 -0.0226856 -1.19814 -0.0898879 
995 1 30.7377 14.4541 16.3196 -3.68273 0.652203 -1.5419 
218 1 16.247 1.59139 3.58594 3.32015 -0.529633 2.13585 
1174 1 12.6092 16.1654 18.0166 2.72682 -1.91479 3.61423 
24 1 18.0849 1.58248 1.59996 0.0508903 0.368424 2.52712 
2 1 1.74668 1.7436 0.0433856 -0.988715 0.978397 -1.52552 
261 1 18.2005 3.43449 3.4927 2.38907 0.530588 -0.689748 
28 1 21.797 1.72504 1.69235 -2.69767 -0.911352 -1.43955 
63 1 19.8515 3.67397 1.67764 -0.315851 -1.80266 1.22066 
222 1 20.0297 1.65902 3.34624 0.874414 0.401826 2.81605 
2411 1 8.98233 17.9931 9.0229 3.2604 -1.82563 -1.98531 
803 1 1.79364 0.0506822 16.2809 0.155524 -2.01397 -2.87987 
32 1 25.143 1.65916 1.64358 2.21937 0.355028 -2.20104 
226 1 23.6314 1.60817 3.59228 1.4314 -0.141238 1.61121 
67 1 23.6287 3.50081 1.79577 -3.69537 1.5507 1.49487 
269 1 25.2556 3.50849 3.52987 -1.15453 0.184234 1.4287 
145 1 21.874 10.8096 -0.00683409 2.06258 0.182106 -0.276319 
2431 1 27.2535 17.9842 9.0964 0.523476 3.76503 -2.12027 
231 1 27.1782 0.00224785 5.31716 -3.70103 1.38324 -0.278519 
36 1 28.9982 1.812 1.82735 -0.583135 2.12548 -3.4563 
71 1 27.2121 3.55915 1.70796 -1.48472 -1.87826 -1.14521 
2421 1 18.0647 18.04 7.01224 0.493612 -3.24364 1.8305 
19 1 16.2774 -0.0616697 1.64527 -0.272822 2.52128 -0.3287 
40 1 32.6314 1.78206 1.85282 -0.176079 -0.750107 -1.65577 
75 1 30.8477 3.59453 1.78007 0.234303 1.62567 -1.96003 
2433 1 28.9613 17.9564 7.1162 -1.30185 2.51038 1.3974 
79 1 34.344 3.53696 1.87567 -0.103391 2.4431 1.65615 
43 1 1.71008 3.64665 1.90445 -1.8986 1.19299 -1.11917 
242 1 1.68653 5.28978 3.69383 -1.24751 -1.25341 -0.165786 
73 1 28.988 3.56916 -0.00848509 2.54166 0.717039 -2.72609 
245 1 3.5431 3.62711 3.63895 -1.19283 0.725292 -0.63207 
47 1 5.45953 3.76802 1.82204 -1.40391 -1.05374 -3.38244 
48 1 3.5689 5.38243 1.84514 1.63709 2.94395 -3.29158 
2019 1 16.1068 17.9344 1.71634 -0.936775 2.99467 1.5397 
831 1 27.0739 -0.00509485 16.1341 0.389803 -0.242998 -2.08238 
246 1 5.32036 5.45908 3.63033 0.333267 1.20005 -1.40581 
52 1 7.2493 5.38542 1.75854 -1.22288 3.07027 4.91167 
91 1 8.99604 7.26122 1.81689 -0.0274621 0.758136 0.210726 
229 1 25.3568 -0.0441978 3.59811 1.49709 1.53863 2.2435 
2831 1 27.1286 18.0383 16.241 3.47097 -0.773461 -1.41524 
56 1 10.8755 5.43177 1.7378 -0.330233 -0.788058 -1.2697 
95 1 12.6838 7.18834 1.61723 -1.98602 -2.71013 0.0158397 
293 1 11.113 7.18833 3.44087 -0.588753 2.03106 -0.76729 
257 1 14.5297 3.39229 3.39357 2.16778 -2.35512 0.464253 
60 1 14.5046 5.40427 1.72563 -0.392865 -2.32564 5.92672 
99 1 16.3227 7.10606 1.69347 1.9929 -0.691217 0.0792539 
258 1 16.2608 5.37052 3.54737 3.87122 1.32547 -0.447223 
64 1 18.0783 5.4286 1.67623 1.5357 1.11089 1.21856 
221 1 18.2333 -0.0575932 3.49492 4.67819 2.08398 0.275464 
265 1 21.6727 3.5456 3.57097 -2.06619 2.80441 2.53082 
2227 1 23.4586 18.0369 5.4064 0.956926 -0.319407 1.17783 
68 1 21.8297 5.24837 1.71114 1.4205 -1.60234 0.684566 
103 1 20.0342 7.10758 1.70825 2.33915 -0.849085 1.8136 
262 1 19.871 5.36303 3.4676 0.391144 1.00433 2.48978 
305 1 21.732 7.22586 3.50984 -1.37297 0.278037 -1.34259 
72 1 25.383 5.37265 1.74039 -0.314849 -1.50488 -0.0514403 
266 1 23.4826 5.44649 3.56627 -2.91667 1.47463 -1.14833 
309 1 25.1844 7.15112 3.75835 -0.969209 0.339875 -0.651966 
76 1 28.9565 5.21262 1.71857 -0.846885 0.909782 -0.329929 
1050 1 9.04495 5.31546 18.0643 1.15223 -1.79067 1.97368 
270 1 27.0695 5.35064 3.67071 0.516531 -1.18424 -1.0773 
313 1 29.082 7.0005 3.56099 -6.0684 1.50699 -0.410931 
80 1 32.6698 5.4212 1.67395 -1.76673 1.00226 1.10484 
274 1 30.8108 5.37407 3.59458 0.966157 0.606526 2.79181 
277 1 32.5366 3.58883 3.71435 0.342157 -0.272192 -0.901859 
115 1 30.7797 7.25982 1.77183 2.72417 -2.00871 0.921039 
317 1 32.4557 7.36761 3.57508 -0.121113 1.88897 0.498709 
805 1 3.78212 0.000347901 14.4342 1.5777 3.99668 1.13941 
1158 1 34.3865 12.6268 18.0381 -1.11971 -2.14191 1.95402 
44 1 36.1132 5.41005 1.78784 2.27478 2.53988 0.428247 
241 1 36.1607 3.55227 3.54003 -2.97045 -0.519971 1.50647 
119 1 34.4557 7.2783 1.76176 0.227954 -2.8081 -0.198791 
281 1 -0.051571 7.15253 3.64902 0.699977 -3.16538 0.447424 
83 1 1.77459 7.11736 1.79088 3.27379 0.185135 -0.57281 
282 1 1.83431 9.08564 3.64823 1.23547 0.0742768 3.09102 
621 1 18.0007 -0.0853875 10.8788 -0.390182 -0.682708 2.85719 
87 1 5.44541 7.11877 1.69433 -2.20102 2.34166 -1.4145 
88 1 3.45723 8.89895 1.80867 -2.7485 -1.921 -1.57055 
92 1 7.18814 9.05761 1.78132 1.14639 -5.45414 -0.2101 
131 1 8.9804 10.9331 1.76147 1.64387 -0.625244 1.52889 
290 1 8.89499 9.01195 3.51241 0.195105 -0.619194 1.40038 
329 1 7.18653 10.8401 3.53815 2.57137 2.26594 1.25223 
96 1 10.8672 9.06398 1.91261 -3.74111 2.87497 -0.0377796 
135 1 12.6522 10.7723 1.79429 -2.38372 -0.274509 0.232695 
294 1 12.7764 9.0402 3.53257 0.831851 -1.32705 -3.30246 
100 1 14.5426 8.9812 1.69778 0.700224 -1.91229 1.28914 
139 1 16.2096 10.8021 1.77084 -1.2604 1.05166 -1.53172 
297 1 14.4471 7.28101 3.51731 2.05609 1.80994 -2.33601 
104 1 18.1888 9.06125 1.82403 1.74296 0.52125 -0.399878 
341 1 17.9813 10.9087 3.49671 -1.42929 -1.97895 -0.919551 
301 1 18.1792 7.18012 3.53695 1.161 1.48772 2.42379 
108 1 21.6333 8.92056 1.77215 -0.665899 -0.487475 -0.755281 
143 1 19.9031 10.8247 1.71647 -1.88101 -1.07095 -2.49292 
302 1 19.8059 9.04481 3.64164 2.496 0.141856 1.04801 
107 1 23.7258 7.11863 1.76658 0.33386 1.9347 1.39044 
112 1 25.3426 8.97987 1.78287 2.92405 -3.19558 -3.28285 
111 1 26.9851 7.18208 1.83908 2.11633 -2.41316 1.0887 
116 1 28.9551 8.96936 1.82002 -3.33951 -1.28219 -0.53666 
151 1 27.1471 10.8229 1.79116 1.83014 4.38181 4.26024 
2613 1 10.9769 17.8912 10.8393 -1.18115 2.859 0.773332 
310 1 27.2688 8.81975 3.59581 0.510563 -0.664344 -4.28244 
613 1 11.0003 0.0810236 10.8343 1.16358 0.837815 0.412662 
157 1 32.7701 10.7656 -0.0857169 -2.83298 1.2843 -1.88078 
120 1 32.648 9.07995 1.80259 -1.25766 0.333519 -1.08594 
314 1 30.6577 9.04487 3.63034 2.81781 2.57475 -1.37248 
2223 1 19.892 18.0394 5.24012 0.692852 -0.748119 0.933756 
84 1 36.2145 8.99729 1.87848 1.47467 -3.12184 1.36325 
159 1 34.4698 11.0205 1.76277 -2.87019 -1.54671 0.281234 
42 1 1.72941 5.33624 0.0830415 1.56802 -0.965278 -2.8905 
123 1 1.64558 10.8442 1.91809 0.914885 -2.03814 1.53332 
322 1 1.71558 12.6568 3.70008 -0.0733863 -0.751377 1.43582 
217 1 14.233 -0.0552989 3.58606 -0.381955 0.387732 -3.77208 
127 1 5.51618 10.8615 1.68531 -1.70984 -0.117229 1.43411 
128 1 3.59574 12.5627 1.91468 5.05235 1.65601 -2.51099 
326 1 5.40706 12.687 3.42526 4.38727 -1.12429 0.500136 
325 1 3.69029 10.7721 3.61807 1.95723 2.62534 -2.49608 
365 1 3.38093 14.4851 3.62694 -0.151029 -1.42883 0.838088 
7 1 5.41428 -0.0388353 1.68554 2.44239 -1.36075 1.72771 
132 1 7.2605 12.6289 1.58591 3.04669 1.04549 1.39117 
171 1 8.92673 14.3937 1.6822 1.64257 0.353709 -2.19656 
369 1 7.17481 14.4098 3.39896 1.08144 4.06672 0.607232 
2221 1 18.057 18.0189 3.47794 -4.31489 0.093438 -0.875452 
1153 1 28.9091 10.7608 18.0417 -0.202107 0.156967 3.39065 
136 1 10.861 12.5871 1.6606 -2.17033 0.473156 1.3275 
333 1 10.8016 10.8046 3.55841 -1.89195 -1.8866 -1.25007 
413 1 10.7571 -0.0614716 7.23982 -0.134954 -0.81773 0.215708 
140 1 14.3522 12.6548 1.78849 1.98322 -1.86818 1.39301 
337 1 14.5312 10.7001 3.51776 1.979 -0.618026 1.15513 
338 1 16.0669 12.665 3.45587 0.929789 -0.882641 -4.05197 
179 1 16.1566 14.5234 1.71485 3.13634 -1.88826 2.28529 
377 1 14.3096 14.4573 3.56151 -2.95867 -2.29971 0.880221 
809 1 7.30501 0.0524674 14.2628 -0.501209 -0.0590443 -2.4675 
825 1 21.5194 0.00565877 14.4311 0.118528 -1.64689 0.141329 
144 1 17.9784 12.5736 1.84405 2.78457 1.90988 -4.18358 
148 1 21.7539 12.6233 1.88073 -0.391194 -1.3918 -0.168989 
342 1 19.9143 12.7396 3.4988 -3.47714 1.05816 -0.415334 
345 1 21.7608 10.8511 3.53132 -4.47797 1.83751 2.01684 
38 1 34.3851 1.84536 -0.0567257 -1.98651 0.0683502 -1.78962 
233 1 29.0001 0.0101685 3.44705 -0.223688 0.0539883 -1.48205 
147 1 23.6415 10.865 1.63472 0.0108204 -1.64322 -2.7024 
419 1 16.1077 -0.0143688 8.92397 3.49082 -1.5287 0.213837 
152 1 25.4309 12.6866 1.71058 -5.70771 -0.292467 0.944928 
346 1 23.5468 12.6131 3.61218 -0.708472 1.24414 1.50592 
349 1 25.2382 10.7844 3.59919 -3.41161 -3.7945 0.230855 
635 1 30.8334 0.00800293 12.6183 -2.92752 1.04711 0.176105 
156 1 28.8302 12.4258 1.74096 1.31783 -0.272073 -0.825196 
350 1 27.1388 12.7493 3.48076 0.487734 0.482193 0.282146 
353 1 28.8709 10.7961 3.59288 5.98165 -1.03531 -3.66112 
819 1 16.1449 -0.0877109 16.2855 2.77051 -0.84425 -0.307367 
155 1 30.8441 10.8115 1.70868 0.151199 -0.204545 -0.021787 
357 1 32.6377 10.7953 3.68504 1.20386 -0.834868 1.28501 
160 1 32.652 12.6656 1.68473 -0.909462 2.94503 0.223147 
354 1 30.7466 12.5808 3.41349 -2.19383 -1.204 3.06975 
124 1 -0.0295732 12.7076 1.68898 1.4642 0.570329 0.27528 
321 1 36.2009 10.7879 3.60364 0.130036 0.216177 0.883474 
358 1 34.4701 12.6173 3.57844 0.648683 4.27516 -1.89574 
163 1 1.76395 14.4292 1.68342 -3.09439 4.69877 2.06573 
362 1 1.71022 16.4058 3.54938 1.07713 1.4708 2.54751 
1000 1 32.6988 16.1884 16.2554 -2.79682 -2.82775 -0.369504 
2229 1 25.4279 17.9241 3.53032 -3.56952 1.43998 -0.336317 
167 1 5.36151 14.5074 1.77321 -1.7357 0.000178101 1.34969 
168 1 3.46512 16.2963 1.70819 1.11774 2.07528 -3.2647 
994 1 30.9455 16.3118 14.3135 1.68555 2.29621 -2.55014 
172 1 7.26284 16.2348 1.8289 4.09845 -1.29799 -1.85601 
370 1 8.96592 16.2931 3.53932 2.80012 0.330164 -3.4164 
175 1 12.6028 14.3839 1.73892 0.712862 2.91226 1.89935 
176 1 10.8457 16.2284 1.76011 -2.71131 1.36638 3.55152 
373 1 10.7219 14.4993 3.53169 -2.27667 3.24577 -1.74319 
374 1 12.5412 16.2299 3.63999 4.80982 2.10372 -1.12754 
180 1 14.3345 16.1616 1.70583 -2.23367 2.00986 0.960145 
991 1 27.1613 14.4578 16.3136 -0.639656 -2.54428 -1.05372 
113 1 28.9976 7.29644 0.0620885 1.3967 1.74213 -0.616955 
993 1 28.9478 14.5241 14.3948 -0.777041 3.25331 1.71366 
184 1 18.0747 16.2081 1.62031 -4.19386 -1.62956 2.71306 
601 1 -0.0450698 -0.0178831 10.9952 -1.16867 2.47931 1.04774 
183 1 19.8987 14.4837 1.71667 1.1733 -0.900417 -0.698593 
188 1 21.6507 16.2274 1.81739 0.602038 0.156195 1.24184 
2621 1 18.1968 18.045 10.7371 0.435305 -2.85449 0.645633 
187 1 23.5121 14.4121 1.70034 1.51341 -0.409427 -0.938855 
192 1 25.3532 16.1643 1.5997 -3.17371 3.24455 -2.99102 
389 1 25.3139 14.5115 3.48128 -3.19922 -0.870181 0.688114 
386 1 23.5409 16.2661 3.56148 -1.21544 -2.02767 4.04992 
191 1 27.1427 14.3744 1.54125 -1.27479 -0.047981 -1.43748 
196 1 28.9507 16.3351 1.68377 -0.122977 -1.09661 0.527702 
390 1 27.1433 16.1526 3.46772 1.11843 0.847569 0.0586327 
996 1 28.8931 16.2548 16.4065 0.175201 2.20896 1.4751 
195 1 30.7389 14.2552 1.62729 0.179509 -0.756171 -1.59812 
200 1 32.5568 16.1837 1.76714 -1.20664 0.769242 0.750649 
199 1 34.5325 14.4546 1.77523 -0.201407 1.35936 3.49069 
361 1 -0.0425505 14.4074 3.56018 -3.02171 0.865525 0.164375 
164 1 -0.0294028 16.2311 1.90379 -1.23019 -0.513313 -2.21493 
398 1 34.4088 16.1162 3.58569 4.28871 0.671637 -2.58066 
611 1 9.12473 -0.0467549 12.5622 -1.37291 -0.823146 -0.914706 
204 1 0.0255404 1.79304 5.28888 -0.0696041 0.280747 -0.947522 
402 1 1.85942 1.69993 7.37881 -2.78429 3.97205 -0.00668892 
2823 1 20.0237 17.996 16.267 0.20915 1.44852 -2.35782 
208 1 3.55931 1.73369 5.25741 -1.48047 -1.47436 1.25163 
406 1 5.39316 1.75535 7.24922 1.1865 -0.740808 5.12939 
6 1 5.40489 1.92163 0.0400843 0.01164 3.88883 0.724143 
987 1 23.3988 14.2982 16.219 -1.08431 -3.46513 2.6687 
212 1 7.23576 1.66386 5.3698 -0.911442 -0.075911 -0.031094 
251 1 9.08606 3.67783 5.32761 0.508811 -0.735496 -0.283065 
410 1 9.10217 1.7965 7.1034 -1.8783 -0.0680861 0.941002 
253 1 10.7839 3.54011 3.61475 2.53107 0.0682461 -0.145964 
216 1 10.8914 1.91575 5.42128 0.640125 -0.713067 -2.54299 
414 1 12.6923 1.88105 7.11874 -0.466236 1.00408 -1.18309 
39 1 34.2612 -0.0141243 1.82214 2.87515 0.286173 -0.863634 
2839 1 34.4144 17.9407 16.1372 -0.517943 -4.45155 2.99309 
220 1 14.4306 1.76528 5.26645 1.0518 0.243667 0.970806 
2427 1 23.4836 17.9573 8.93549 -1.10617 -1.91384 -1.55369 
224 1 18.2105 1.59745 5.39796 -1.78689 -1.95576 -2.86312 
461 1 18.0767 3.57832 7.24849 0.282183 -0.271687 -1.15992 
228 1 21.7042 1.53534 5.33748 1.26174 2.44556 0.536145 
263 1 19.9376 3.37789 5.36722 1.42677 5.12945 -1.47302 
415 1 12.5976 0.0430595 9.00097 -1.36713 2.45497 2.11017 
465 1 21.6555 3.55367 7.24859 -2.44196 -2.13972 0.945483 
232 1 25.3735 1.63998 5.3928 0.181294 -0.1453 -2.03269 
1154 1 30.809 12.5611 18.0488 -3.06065 0.523852 -0.849387 
989 1 25.3342 14.4735 14.3459 -4.58605 0.496192 0.557119 
230 1 27.0215 1.70997 3.55267 0.53569 -0.326035 2.73797 
236 1 29.0663 1.644 5.29046 -1.9235 0.70237 -0.67688 
273 1 28.8635 3.5208 3.65385 -0.120266 -1.51727 0.027964 
271 1 27.0558 3.54635 5.36145 0.551704 1.56393 -0.804283 
234 1 30.8409 1.83655 3.5793 0.77797 0.00780749 2.024 
240 1 32.58 1.65522 5.52764 0.589572 1.59864 -0.987946 
275 1 30.8983 3.61384 5.41257 1.38179 -0.246607 -0.843361 
238 1 34.3982 1.68752 3.77362 2.64394 -0.117337 -0.205942 
438 1 34.5553 1.69537 7.20954 3.93982 4.16326 0.354155 
279 1 34.3928 3.40843 5.39039 -2.91394 0.644603 -1.93995 
243 1 1.71813 3.55099 5.45548 0.469069 3.27648 -1.3393 
244 1 36.102 5.33705 5.47238 -0.393274 -0.467247 0.506605 
247 1 5.32122 3.57118 5.34644 -0.0967694 2.56104 -0.583748 
248 1 3.59687 5.3562 5.36686 0.260273 3.85099 0.486635 
250 1 9.25972 5.5351 3.58163 6.33491 0.621443 -0.133191 
252 1 7.24197 5.36357 5.25634 5.7065 1.8742 -0.332932 
291 1 8.97014 7.1841 5.3441 0.771897 3.24727 -1.21047 
449 1 7.23707 3.44366 7.18387 5.55315 -2.30131 1.14269 
450 1 8.92533 5.36023 7.05746 0.695685 1.85362 -0.84041 
254 1 12.8039 5.36698 3.56628 -1.88664 0.15785 -1.01905 
255 1 12.6763 3.60019 5.36973 2.23461 -0.128863 1.39354 
256 1 10.8411 5.53487 5.44904 0.410044 -0.33207 -0.328377 
295 1 12.7738 7.08458 5.50799 -3.84874 -0.922386 -0.050817 
259 1 16.2542 3.56139 5.27655 1.79518 0.141688 2.53224 
260 1 14.5095 5.27269 5.3332 2.11158 -1.91788 1.90206 
299 1 16.3525 7.22958 5.32133 -1.73219 3.89675 -0.301106 
264 1 18.0643 5.3419 5.31661 -1.93768 -5.67026 -0.408709 
268 1 21.5345 5.29494 5.40408 -0.710149 -2.13965 -1.50403 
462 1 19.9249 5.44714 7.27983 0.933702 1.49122 -2.02357 
505 1 21.6565 7.17192 7.21667 2.2746 -1.82237 2.59431 
267 1 23.2579 3.46137 5.38668 0.0978916 4.49209 0.172521 
272 1 25.1835 5.23373 5.49731 -3.40603 0.51799 1.95423 
469 1 25.3433 3.46596 7.24138 2.0933 1.22526 1.89777 
307 1 23.3918 7.1245 5.34142 -0.989756 1.17394 2.89368 
466 1 23.3671 5.33743 7.20976 -3.33978 0.24447 -1.94532 
509 1 25.2459 7.13107 7.07467 -1.49104 2.60066 2.00591 
276 1 29.0685 5.36257 5.42749 -2.48966 -2.59352 0.600827 
311 1 27.3208 7.08797 5.36844 -1.33512 0.294984 2.45638 
280 1 32.7009 5.47117 5.43686 1.89296 0.767957 -1.95372 
315 1 30.8216 7.17252 5.40449 -2.79595 1.3217 1.81149 
474 1 30.8513 5.38776 7.17881 0.979967 0.887209 -0.0311989 
477 1 32.6644 3.61298 7.11148 -1.3729 -0.894825 2.71484 
517 1 32.65 7.28855 7.15577 -0.740572 4.72612 -0.842133 
278 1 34.3647 5.40749 3.59016 0.799781 1.04755 -1.17027 
478 1 34.4595 5.3715 7.23852 -0.266835 4.25043 -1.31633 
283 1 1.74553 7.20917 5.28041 1.92777 -4.94163 -1.24523 
323 1 1.68241 10.6594 5.52412 1.03899 -0.352109 2.4407 
284 1 36.1743 8.90909 5.38387 -1.98109 3.22725 -0.273188 
285 1 3.61066 7.18687 3.60335 -0.309696 2.48022 1.28646 
286 1 5.34406 9.06197 3.48933 0.468402 -1.64584 -1.20967 
287 1 5.44463 7.24658 5.45304 -3.73802 2.116 0.701519 
288 1 3.68156 9.03226 5.35941 1.25178 0.232004 -3.78396 
486 1 5.35551 8.99867 7.19372 2.82083 0.60714 2.48613 
289 1 7.13867 7.20521 3.63785 1.40633 -0.695388 0.879849 
292 1 7.09445 8.90681 5.28818 -1.01687 -3.06922 -0.759373 
331 1 8.99855 10.849 5.35319 -2.51317 1.3707 0.0617126 
490 1 9.02222 9.00424 7.27563 -0.833388 -2.66143 0.0253431 
296 1 10.7168 8.95544 5.32642 0.571743 0.71283 0.487263 
335 1 12.5907 10.7973 5.26693 0.208756 -1.7331 -2.58882 
533 1 10.7978 10.8016 7.20538 -0.564957 -2.92778 -0.904522 
494 1 12.6279 9.02611 7.22535 -0.164503 0.781506 -0.342885 
298 1 16.3243 8.9763 3.55853 0.862523 0.202908 2.55395 
300 1 14.571 9.14154 5.38351 -0.765953 -0.152764 0.495648 
498 1 16.284 9.02176 7.25147 -2.06787 -2.05904 0.789624 
304 1 18.1436 9.04025 5.35018 0.912156 0.457716 1.83575 
501 1 18.0442 7.26503 7.16194 1.43649 -3.08162 0.115247 
303 1 19.9094 7.15377 5.3938 2.18969 0.284783 -2.50929 
308 1 21.6813 9.04027 5.23931 4.63312 -0.799296 4.38877 
502 1 19.8715 9.05442 7.18296 3.39824 -1.07718 -3.09384 
343 1 19.9365 10.8001 5.2841 -2.63561 -3.4052 -1.78372 
306 1 23.4244 9.02317 3.53751 -2.19646 -0.0972211 -0.208102 
312 1 25.3199 8.92032 5.4655 0.651686 2.38081 -2.07908 
506 1 23.3961 8.94068 7.09677 0.788453 -4.23553 0.0373766 
316 1 28.9526 8.91833 5.41766 -0.42242 2.06067 1.20749 
553 1 28.943 10.6828 7.14598 1.39685 -0.985856 -2.24036 
510 1 27.1997 9.00724 7.16862 -3.64389 0.180636 -0.549413 
320 1 32.6202 9.03714 5.33112 0.859407 3.19303 2.84343 
355 1 30.7462 10.8509 5.3427 3.57631 -0.761616 0.151201 
514 1 30.7911 8.97878 7.13931 1.60894 2.02366 3.36472 
318 1 34.3808 9.09682 3.54957 1.04671 1.2111 -0.874012 
319 1 34.4309 7.28223 5.32216 -0.526131 1.0981 1.95805 
359 1 34.3456 10.807 5.50434 1.18381 1.26228 -2.45202 
324 1 36.1441 12.769 5.46621 2.30701 1.57522 2.77316 
363 1 1.65932 14.4271 5.49029 1.13431 -2.33418 -0.246187 
561 1 36.2247 14.4794 7.21731 3.31955 -0.0976806 1.42557 
327 1 5.3583 10.8354 5.367 3.0276 -0.696303 -3.5192 
328 1 3.5317 12.6101 5.23492 -0.762355 -0.0668431 -2.12712 
565 1 3.39608 14.497 7.12024 -1.74985 1.7461 0.747253 
526 1 5.31095 12.5181 7.15659 -0.91304 -1.59368 -1.89831 
525 1 3.50399 10.8989 7.28033 -0.891117 -0.83873 1.09721 
330 1 8.88923 12.6081 3.45439 -0.65032 -4.03329 0.423202 
332 1 7.12042 12.6805 5.36091 0.383226 2.26879 0.988693 
529 1 7.18998 10.6114 7.26956 -2.69658 -1.51711 -1.0033 
530 1 8.86224 12.6378 7.17625 -2.24677 -0.0032893 -0.450919 
334 1 12.5046 12.5956 3.62911 0.906359 1.68681 -1.62425 
336 1 10.7774 12.6279 5.4401 -0.509484 -0.519993 0.661684 
375 1 12.6361 14.3899 5.42263 1.33306 -0.0596905 0.504041 
534 1 12.557 12.5137 7.11632 -0.920449 0.256758 1.88448 
339 1 16.3862 10.7987 5.36604 -3.02439 -2.542 -0.464571 
340 1 14.3989 12.475 5.26361 -1.88973 -3.39207 -1.65541 
538 1 16.2099 12.5847 7.13651 2.95283 3.57412 1.79453 
379 1 16.0111 14.4333 5.29962 0.330065 0.425782 -1.33711 
344 1 17.9705 12.7454 5.28575 -1.42127 -1.43168 -0.948779 
541 1 18.1392 10.952 7.18764 0.478999 2.45454 0.519963 
581 1 17.9133 14.2864 7.16959 -2.21138 -1.28219 0.761855 
348 1 21.7358 12.7294 5.33726 -0.538299 0.2115 0.959727 
542 1 19.9504 12.7094 7.2344 -1.78832 2.52971 -0.523001 
545 1 21.7795 10.9141 7.0849 0.470991 -1.41745 -0.148882 
383 1 19.8147 14.4241 5.39493 -1.29383 1.80734 -1.03649 
347 1 23.5733 10.7769 5.35949 2.23842 2.17616 -4.88015 
352 1 25.3142 12.6684 5.29951 -0.609028 -0.0454128 -1.11357 
549 1 25.3081 10.8547 7.03801 -5.58334 0.522058 1.07492 
546 1 23.5794 12.5202 7.10522 -4.74011 6.67833 2.30725 
589 1 25.4321 14.4254 7.16662 0.250818 3.29133 0.0828689 
351 1 27.1075 10.7518 5.20397 2.03716 1.87244 4.54282 
356 1 28.9235 12.6894 5.23574 -3.66151 1.18755 -1.58707 
550 1 27.2034 12.5593 7.10494 -1.4639 0.956357 0.496179 
360 1 32.5242 12.6453 5.40657 0.725307 0.32101 0.569238 
554 1 30.9659 12.7153 7.11414 -1.47158 -5.44917 3.7643 
558 1 34.3789 12.614 7.28843 0.201228 1.15097 -3.51 
364 1 -0.0848408 16.3018 5.23015 -4.96951 1.29985 -1.99248 
562 1 1.55761 16.3524 7.11561 -1.586 3.73323 -2.07611 
992 1 25.4279 16.3022 16.2474 1.21877 1.66774 0.187637 
366 1 5.36142 16.2957 3.51343 -2.43526 -0.891858 3.44895 
367 1 5.2666 14.514 5.19964 -0.0987944 -2.31165 -0.309231 
368 1 3.4848 16.3831 5.2752 -1.6359 -3.24686 -1.31401 
371 1 8.97069 14.3853 5.24988 2.71147 3.99042 -1.93557 
372 1 7.23313 16.3429 5.36298 -0.850097 -2.72716 -1.11865 
570 1 9.00621 16.203 7.26051 -0.6218 1.1536 2.06838 
569 1 7.16181 14.4931 7.04562 0.645964 -1.04025 -1.85072 
376 1 10.7367 16.3009 5.40082 0.434252 -2.07063 -1.18128 
637 1 32.5111 -0.0570982 10.8749 0.264565 -1.57726 0.221849 
378 1 16.2063 16.204 3.51627 -0.350383 -1.60883 1.17806 
380 1 14.2235 16.3034 5.40149 -3.25823 0.975746 2.92499 
2435 1 30.8765 18.0285 8.87307 3.97416 -0.88206 -2.91458 
815 1 12.6364 0.0298995 16.3927 -0.920786 0.530628 1.72341 
381 1 17.9692 14.4271 3.44179 -0.02835 -0.753814 -0.21766 
384 1 18.1003 16.0799 5.45796 -0.923965 -0.114096 0.947709 
582 1 19.8186 16.231 7.12491 -1.7713 -1.19508 -1.48333 
401 1 0.0414249 0.0179446 7.28474 -1.03378 0.797849 -1.42442 
385 1 21.7179 14.3922 3.56013 -0.119857 2.11834 -2.73079 
382 1 19.7731 16.1902 3.56226 -0.865884 -3.46412 1.81329 
388 1 21.711 16.2827 5.43803 1.83199 -0.814506 -2.55993 
387 1 23.4581 14.4372 5.38594 1.86113 0.325426 1.47497 
392 1 25.307 16.3422 5.31705 -0.472096 -1.39174 0.191254 
586 1 23.6122 16.3644 7.18546 -3.33916 1.75383 -1.49068 
393 1 29.0037 14.4884 3.37263 -1.09141 2.94103 1.91764 
391 1 27.1699 14.4145 5.39993 0.737694 -1.28664 -4.08276 
396 1 29.0418 16.2574 5.24082 0.171964 2.89953 -1.4474 
593 1 28.9816 14.4373 7.15136 -1.61529 -1.67503 0.0582168 
395 1 30.812 14.4835 5.12433 0.599046 -3.71031 -1.57904 
397 1 32.6135 14.3908 3.46976 0.00910826 0.975023 -0.836304 
394 1 30.7182 16.2862 3.34553 1.64033 -0.65016 2.30484 
400 1 32.5142 16.2501 5.32514 -1.68811 -0.0547917 1.53447 
399 1 34.3903 14.5126 5.36478 0.352381 -0.113239 1.07488 
988 1 21.6315 16.2157 16.2336 0.413817 -1.77388 3.44712 
441 1 36.2377 3.47717 7.29426 1.43239 2.25604 -0.22059 
443 1 1.68366 3.48228 9.09657 -0.370782 2.84178 -2.59833 
982 1 19.9404 16.2318 14.3885 -2.25843 -0.985275 1.40774 
1157 1 32.6225 10.7695 18.0137 -5.88991 -0.320738 -1.42507 
408 1 3.55883 1.66665 9.00379 -0.757085 -1.04746 3.02724 
2813 1 10.8164 18.0472 14.3676 -1.16377 1.06899 1.36875 
1 1 36.2112 0.0432335 -0.064839 1.87603 1.8577 0.670461 
412 1 7.14884 1.73164 9.04359 -3.18084 0.593944 1.38925 
451 1 9.03102 3.60762 8.94869 1.47413 0.874533 2.66577 
984 1 18.1136 16.165 16.3333 5.15892 -3.07999 1.83591 
416 1 10.8953 1.84425 9.04088 -3.1815 -0.743522 0.7958 
614 1 12.7782 1.76115 10.9027 -1.33809 1.58113 -0.265822 
813 1 10.9357 0.0122415 14.5629 1.52833 0.540821 -2.10113 
418 1 16.3178 1.5546 7.07823 2.94158 -1.89038 0.827676 
420 1 14.3867 1.70989 9.08379 3.3054 0.102138 2.89009 
34 1 30.9026 1.89309 -0.0156644 -0.951123 0.22675 -0.343821 
2633 1 29.037 17.9408 10.7303 -1.78172 2.54876 0.619819 
424 1 18.04 1.55515 9.03121 0.432945 -0.0848831 1.24193 
422 1 19.9038 1.67318 7.26348 2.5732 -1.91013 -0.715119 
428 1 21.693 1.72439 9.02183 1.88521 -1.21371 -3.24153 
463 1 19.8378 3.56602 8.97591 -4.24345 -1.14395 1.04367 
603 1 1.82237 -0.0316535 12.7626 0.752577 2.5026 1.49909 
2833 1 29.1095 17.9921 14.4083 2.61777 -3.38381 1.29319 
426 1 23.4066 1.75545 7.08146 0.885866 -2.3662 -2.70115 
181 1 17.9244 14.2907 -0.043832 0.86415 -2.67184 -0.899718 
432 1 25.3886 1.76907 8.94352 1.0047 -3.80561 -2.48241 
467 1 23.4175 3.43458 8.91224 1.8166 2.44631 1.00127 
626 1 23.4675 1.58772 10.7118 -1.27049 -1.04261 -2.02099 
430 1 27.1792 1.68719 7.14755 -0.866889 0.705536 -3.07068 
2605 1 3.407 18.0363 10.8329 0.583404 -1.44241 1.19428 
436 1 28.951 1.65941 9.01173 1.62598 -2.19369 -0.728861 
473 1 28.9021 3.4365 7.3532 0.57571 -2.1281 3.21234 
673 1 28.9661 3.50317 10.7184 0.84619 0.166427 1.45216 
70 1 27.2182 5.51484 -0.0206247 -0.71834 -0.249095 -0.849494 
807 1 5.44473 0.0210583 16.2516 -0.523019 0.675287 1.7117 
434 1 30.7344 1.805 7.16962 -0.157991 -2.01459 -0.408055 
215 1 12.5344 -0.0640527 5.34151 0.907943 -1.46645 -2.20841 
440 1 32.5855 1.77456 8.85637 3.05152 1.35563 -3.07803 
475 1 30.8593 3.55815 9.00008 1.911 -0.917785 1.27816 
634 1 30.7498 1.6582 10.7715 4.12228 -0.922377 -2.47526 
677 1 32.7157 3.49019 10.746 0.596584 -4.68621 -0.0373337 
837 1 32.6089 -0.072808 14.5795 -3.09096 -2.06766 1.37805 
404 1 0.0227557 1.70288 9.1362 0.225846 -1.80302 0.146332 
479 1 34.5024 3.53769 9.01418 0.117246 1.26141 -1.11563 
638 1 34.4347 1.70532 10.8376 4.74668 0.809259 -2.94318 
442 1 1.70122 5.46182 7.13297 -3.1531 4.37223 -1.33321 
481 1 36.1962 7.22191 7.28908 3.40994 0.467558 -0.74362 
483 1 1.6978 7.03846 9.056 2.79113 -1.19697 -0.730603 
444 1 36.2477 5.37795 9.05389 3.20359 -1.11179 -1.55549 
445 1 3.56332 3.54339 7.18734 3.19797 -1.04737 1.80429 
446 1 5.33027 5.32312 7.07895 -0.0722529 -0.547583 3.07609 
447 1 5.36516 3.54202 8.91133 -1.05552 -1.52439 -3.05803 
448 1 3.34559 5.39233 9.00868 3.00803 -4.4508 0.680822 
487 1 5.29957 7.03501 8.99778 -0.656096 -0.452358 2.14237 
485 1 3.45764 7.29146 7.11937 -0.368558 1.86554 1.16936 
646 1 5.35472 5.35396 10.7882 -0.165302 -1.78682 1.38228 
452 1 7.21179 5.33007 8.92918 -4.74268 -1.39293 -0.541755 
653 1 10.8585 3.53767 10.7465 -0.453701 0.507408 0.017246 
453 1 10.8034 3.74747 7.18059 0.533813 -0.305853 1.54232 
455 1 12.7142 3.57912 8.96702 -3.44974 -2.35823 2.17787 
454 1 12.7111 5.41051 7.28463 4.4688 -1.93339 -0.347185 
456 1 10.8897 5.35392 9.06163 0.279247 -2.39527 -2.27359 
693 1 10.7545 7.20096 10.8893 -1.05943 -2.55503 -0.793581 
654 1 12.693 5.37685 10.855 2.97414 0.238651 0.915285 
458 1 16.2248 5.54128 7.07759 -1.00903 -0.446056 -0.867626 
459 1 16.2958 3.37199 9.06363 3.47502 -1.60075 -1.59152 
457 1 14.5537 3.55414 7.06577 -1.44857 -0.825021 -1.89357 
460 1 14.5289 5.32492 8.99782 0.444813 0.889595 -3.62713 
499 1 16.2324 7.10844 9.00657 0.934728 1.86939 -6.62839 
464 1 17.9389 5.25908 8.96286 -1.39636 3.14429 -3.13821 
468 1 21.6548 5.44637 9.00599 1.8811 -1.82686 -4.4367 
472 1 25.2922 5.33574 8.95896 1.34616 -1.03977 -1.10313 
666 1 23.4028 5.33455 10.8099 0.0519305 -3.67328 -0.609182 
470 1 27.2014 5.17863 7.22488 0.219548 -2.08212 -2.9545 
471 1 27.137 3.48168 9.04199 -2.22086 1.91585 -0.643237 
476 1 28.9501 5.31038 9.02703 -0.385427 1.56851 -0.969953 
480 1 32.715 5.41908 8.92353 0.0113854 -0.26049 2.49537 
515 1 30.8618 7.149 8.89487 2.97912 0.238445 -2.1054 
519 1 34.4563 7.28582 9.14617 -0.884857 -2.09951 -0.211913 
521 1 36.175 10.6849 7.20798 1.2829 -0.874142 2.40233 
482 1 1.7627 8.97919 7.17954 -3.41286 3.34595 2.05713 
523 1 1.71938 10.721 9.03411 0.81881 2.22566 -0.884029 
484 1 -0.0191579 8.94405 8.94802 -0.40839 1.73 0.983469 
488 1 3.7175 8.9507 9.11179 0.233826 -4.00293 0.134413 
686 1 5.47312 8.92386 10.8485 -0.857406 0.628656 -0.239918 
489 1 7.23223 7.21092 7.23655 -2.06606 -2.01155 0.181506 
491 1 8.99603 7.14864 8.9757 -1.81248 -1.23404 0.771693 
492 1 7.15069 8.80439 9.11419 -0.843092 -3.45132 -1.25452 
531 1 9.00601 10.829 9.02125 0.655654 3.21278 -0.995503 
493 1 10.7316 7.22325 7.18131 -3.50319 0.200049 2.14865 
495 1 12.6569 7.17263 9.14673 0.941821 1.8922 -0.532517 
496 1 10.9066 8.95862 8.99791 1.97761 -0.107629 -0.99816 
535 1 12.6863 10.8869 9.00178 -1.68907 -0.375952 4.1012 
537 1 14.424 10.8001 7.26511 -2.10071 -2.22008 0.600057 
497 1 14.4011 7.11064 7.26917 0.928845 -2.59494 -2.18112 
500 1 14.4333 8.90246 9.06353 0.821405 -2.42132 -0.115716 
539 1 16.2009 10.8947 9.09701 0.342793 1.04603 4.60107 
697 1 14.5568 7.17686 10.7846 1.27093 3.12645 -0.205796 
504 1 18.0354 9.09973 9.15646 1.22211 1.40795 0.965485 
705 1 21.7551 7.19947 10.7254 2.43239 -1.84649 1.05505 
503 1 19.817 7.20254 9.06071 1.18058 0.775339 0.491255 
508 1 21.701 8.96418 8.90913 0.145018 3.17755 -0.0857742 
702 1 19.9514 9.09527 10.769 0.0768191 -0.0211043 -1.0048 
745 1 21.8126 10.7333 10.7751 1.35261 -0.550858 0.860138 
709 1 25.477 7.21439 10.8046 -0.801515 -0.99543 -3.12086 
507 1 23.6489 7.11719 8.99685 -2.04741 -3.82974 -3.28492 
512 1 25.4081 9.13383 8.71751 -2.57707 -1.78519 0.710446 
547 1 23.5478 10.8355 8.80333 5.56139 -1.00601 -1.57248 
749 1 25.2892 10.9347 10.7059 -1.20121 -2.27499 -0.981259 
511 1 27.1002 7.13668 8.96434 0.870616 -0.317656 3.22404 
713 1 28.9617 7.12333 10.7792 -0.198814 0.501131 -2.62101 
513 1 29.0153 7.06981 7.21734 -0.171803 0.805439 2.97733 
516 1 29.0169 8.98541 8.96959 -1.38976 3.57803 1.6838 
551 1 27.1847 10.7818 8.96986 1.8534 1.33163 -1.48287 
753 1 28.9612 10.8216 10.7522 -2.38975 -1.58108 3.28812 
520 1 32.6475 8.90684 9.10127 2.14525 -1.6347 1.5736 
714 1 30.7137 9.04659 10.9063 1.5271 0.0162474 0.816359 
555 1 30.7384 10.9106 9.09404 -1.67828 -2.61658 2.55183 
717 1 32.5938 7.26647 10.9153 1.8922 -3.31567 0.280609 
518 1 34.4618 8.98223 7.29572 -2.41827 -1.56907 0.675423 
718 1 34.505 9.0959 10.8046 -2.78359 -1.38342 0.186979 
721 1 36.211 10.8544 10.7351 3.12866 -2.24775 -0.252437 
522 1 1.55184 12.6242 7.06905 -0.537529 5.00143 1.16596 
722 1 1.75718 12.6121 10.7936 -1.98673 -0.933936 -2.07177 